+ 0.1 0 13 cbr 210 ------- 9 0.0 30.0 0 0
- 0.1 0 13 cbr 210 ------- 9 0.0 30.0 0 0
+ 0.1 8 28 cbr 210 ------- 9 8.0 30.0 0 1
- 0.1 8 28 cbr 210 ------- 9 8.0 30.0 0 1
+ 0.1 1 14 cbr 210 ------- 9 1.0 30.0 0 2
- 0.1 1 14 cbr 210 ------- 9 1.0 30.0 0 2
+ 0.1 2 15 cbr 210 ------- 9 2.0 31.0 0 3
- 0.1 2 15 cbr 210 ------- 9 2.0 31.0 0 3
+ 0.1 3 16 cbr 210 ------- 9 3.0 31.0 0 4
- 0.1 3 16 cbr 210 ------- 9 3.0 31.0 0 4
+ 0.1 4 17 cbr 210 ------- 9 4.0 31.0 0 5
- 0.1 4 17 cbr 210 ------- 9 4.0 31.0 0 5
+ 0.1 5 18 cbr 210 ------- 9 5.0 29.0 0 6
- 0.1 5 18 cbr 210 ------- 9 5.0 29.0 0 6
+ 0.1 6 19 cbr 210 ------- 9 6.0 29.0 0 7
- 0.1 6 19 cbr 210 ------- 9 6.0 29.0 0 7
+ 0.1 7 20 cbr 210 ------- 9 7.0 29.0 0 8
- 0.1 7 20 cbr 210 ------- 9 7.0 29.0 0 8
r 0.11168 0 13 cbr 210 ------- 9 0.0 30.0 0 0
+ 0.11168 13 21 cbr 210 ------- 9 0.0 30.0 0 0
- 0.11168 13 21 cbr 210 ------- 9 0.0 30.0 0 0
r 0.11168 8 28 cbr 210 ------- 9 8.0 30.0 0 1
+ 0.11168 28 21 cbr 210 ------- 9 8.0 30.0 0 1
- 0.11168 28 21 cbr 210 ------- 9 8.0 30.0 0 1
r 0.11168 1 14 cbr 210 ------- 9 1.0 30.0 0 2
+ 0.11168 14 21 cbr 210 ------- 9 1.0 30.0 0 2
- 0.11168 14 21 cbr 210 ------- 9 1.0 30.0 0 2
r 0.11168 2 15 cbr 210 ------- 9 2.0 31.0 0 3
+ 0.11168 15 16 cbr 210 ------- 9 2.0 31.0 0 3
- 0.11168 15 16 cbr 210 ------- 9 2.0 31.0 0 3
r 0.11168 3 16 cbr 210 ------- 9 3.0 31.0 0 4
+ 0.11168 16 22 cbr 210 ------- 9 3.0 31.0 0 4
- 0.11168 16 22 cbr 210 ------- 9 3.0 31.0 0 4
r 0.11168 4 17 cbr 210 ------- 9 4.0 31.0 0 5
+ 0.11168 17 26 cbr 210 ------- 9 4.0 31.0 0 5
- 0.11168 17 26 cbr 210 ------- 9 4.0 31.0 0 5
r 0.11168 5 18 cbr 210 ------- 9 5.0 29.0 0 6
+ 0.11168 18 23 cbr 210 ------- 9 5.0 29.0 0 6
- 0.11168 18 23 cbr 210 ------- 9 5.0 29.0 0 6
r 0.11168 6 19 cbr 210 ------- 9 6.0 29.0 0 7
+ 0.11168 19 23 cbr 210 ------- 9 6.0 29.0 0 7
- 0.11168 19 23 cbr 210 ------- 9 6.0 29.0 0 7
r 0.11168 7 20 cbr 210 ------- 9 7.0 29.0 0 8
+ 0.11168 20 24 cbr 210 ------- 9 7.0 29.0 0 8
- 0.11168 20 24 cbr 210 ------- 9 7.0 29.0 0 8
r 0.12336 13 21 cbr 210 ------- 9 0.0 30.0 0 0
+ 0.12336 21 27 cbr 210 ------- 9 0.0 30.0 0 0
- 0.12336 21 27 cbr 210 ------- 9 0.0 30.0 0 0
r 0.12336 28 21 cbr 210 ------- 9 8.0 30.0 0 1
+ 0.12336 21 27 cbr 210 ------- 9 8.0 30.0 0 1
r 0.12336 14 21 cbr 210 ------- 9 1.0 30.0 0 2
+ 0.12336 21 27 cbr 210 ------- 9 1.0 30.0 0 2
r 0.12336 15 16 cbr 210 ------- 9 2.0 31.0 0 3
+ 0.12336 16 22 cbr 210 ------- 9 2.0 31.0 0 3
- 0.12336 16 22 cbr 210 ------- 9 2.0 31.0 0 3
r 0.12336 16 22 cbr 210 ------- 9 3.0 31.0 0 4
+ 0.12336 22 26 cbr 210 ------- 9 3.0 31.0 0 4
- 0.12336 22 26 cbr 210 ------- 9 3.0 31.0 0 4
r 0.12336 17 26 cbr 210 ------- 9 4.0 31.0 0 5
+ 0.12336 26 25 cbr 210 ------- 9 4.0 31.0 0 5
- 0.12336 26 25 cbr 210 ------- 9 4.0 31.0 0 5
r 0.12336 18 23 cbr 210 ------- 9 5.0 29.0 0 6
+ 0.12336 23 27 cbr 210 ------- 9 5.0 29.0 0 6
- 0.12336 23 27 cbr 210 ------- 9 5.0 29.0 0 6
r 0.12336 19 23 cbr 210 ------- 9 6.0 29.0 0 7
+ 0.12336 23 27 cbr 210 ------- 9 6.0 29.0 0 7
r 0.12336 20 24 cbr 210 ------- 9 7.0 29.0 0 8
+ 0.12336 24 23 cbr 210 ------- 9 7.0 29.0 0 8
- 0.12336 24 23 cbr 210 ------- 9 7.0 29.0 0 8
- 0.12504 21 27 cbr 210 ------- 9 8.0 30.0 0 1
- 0.12504 23 27 cbr 210 ------- 9 6.0 29.0 0 7
- 0.12672 21 27 cbr 210 ------- 9 1.0 30.0 0 2
r 0.13504 21 27 cbr 210 ------- 9 0.0 30.0 0 0
+ 0.13504 27 30 cbr 210 ------- 9 0.0 30.0 0 0
- 0.13504 27 30 cbr 210 ------- 9 0.0 30.0 0 0
r 0.13504 16 22 cbr 210 ------- 9 2.0 31.0 0 3
+ 0.13504 22 26 cbr 210 ------- 9 2.0 31.0 0 3
- 0.13504 22 26 cbr 210 ------- 9 2.0 31.0 0 3
r 0.13504 22 26 cbr 210 ------- 9 3.0 31.0 0 4
+ 0.13504 26 25 cbr 210 ------- 9 3.0 31.0 0 4
- 0.13504 26 25 cbr 210 ------- 9 3.0 31.0 0 4
r 0.13504 26 25 cbr 210 ------- 9 4.0 31.0 0 5
+ 0.13504 25 27 cbr 210 ------- 9 4.0 31.0 0 5
- 0.13504 25 27 cbr 210 ------- 9 4.0 31.0 0 5
r 0.13504 23 27 cbr 210 ------- 9 5.0 29.0 0 6
+ 0.13504 27 25 cbr 210 ------- 9 5.0 29.0 0 6
- 0.13504 27 25 cbr 210 ------- 9 5.0 29.0 0 6
r 0.13504 24 23 cbr 210 ------- 9 7.0 29.0 0 8
+ 0.13504 23 27 cbr 210 ------- 9 7.0 29.0 0 8
- 0.13504 23 27 cbr 210 ------- 9 7.0 29.0 0 8
r 0.13672 21 27 cbr 210 ------- 9 8.0 30.0 0 1
+ 0.13672 27 30 cbr 210 ------- 9 8.0 30.0 0 1
r 0.13672 23 27 cbr 210 ------- 9 6.0 29.0 0 7
+ 0.13672 27 25 cbr 210 ------- 9 6.0 29.0 0 7
- 0.13672 27 30 cbr 210 ------- 9 8.0 30.0 0 1
- 0.13672 27 25 cbr 210 ------- 9 6.0 29.0 0 7
r 0.1384 21 27 cbr 210 ------- 9 1.0 30.0 0 2
+ 0.1384 27 30 cbr 210 ------- 9 1.0 30.0 0 2
- 0.1384 27 30 cbr 210 ------- 9 1.0 30.0 0 2
r 0.14672 27 30 cbr 210 ------- 9 0.0 30.0 0 0
r 0.14672 22 26 cbr 210 ------- 9 2.0 31.0 0 3
+ 0.14672 26 25 cbr 210 ------- 9 2.0 31.0 0 3
- 0.14672 26 25 cbr 210 ------- 9 2.0 31.0 0 3
r 0.14672 26 25 cbr 210 ------- 9 3.0 31.0 0 4
+ 0.14672 25 27 cbr 210 ------- 9 3.0 31.0 0 4
- 0.14672 25 27 cbr 210 ------- 9 3.0 31.0 0 4
r 0.14672 25 27 cbr 210 ------- 9 4.0 31.0 0 5
+ 0.14672 27 31 cbr 210 ------- 9 4.0 31.0 0 5
- 0.14672 27 31 cbr 210 ------- 9 4.0 31.0 0 5
r 0.14672 27 25 cbr 210 ------- 9 5.0 29.0 0 6
+ 0.14672 25 29 cbr 210 ------- 9 5.0 29.0 0 6
- 0.14672 25 29 cbr 210 ------- 9 5.0 29.0 0 6
r 0.14672 23 27 cbr 210 ------- 9 7.0 29.0 0 8
+ 0.14672 27 25 cbr 210 ------- 9 7.0 29.0 0 8
- 0.14672 27 25 cbr 210 ------- 9 7.0 29.0 0 8
r 0.1484 27 30 cbr 210 ------- 9 8.0 30.0 0 1
r 0.1484 27 25 cbr 210 ------- 9 6.0 29.0 0 7
+ 0.1484 25 29 cbr 210 ------- 9 6.0 29.0 0 7
- 0.1484 25 29 cbr 210 ------- 9 6.0 29.0 0 7
r 0.15008 27 30 cbr 210 ------- 9 1.0 30.0 0 2
r 0.1584 26 25 cbr 210 ------- 9 2.0 31.0 0 3
+ 0.1584 25 27 cbr 210 ------- 9 2.0 31.0 0 3
- 0.1584 25 27 cbr 210 ------- 9 2.0 31.0 0 3
r 0.1584 25 27 cbr 210 ------- 9 3.0 31.0 0 4
+ 0.1584 27 31 cbr 210 ------- 9 3.0 31.0 0 4
- 0.1584 27 31 cbr 210 ------- 9 3.0 31.0 0 4
r 0.1584 27 31 cbr 210 ------- 9 4.0 31.0 0 5
r 0.1584 25 29 cbr 210 ------- 9 5.0 29.0 0 6
r 0.1584 27 25 cbr 210 ------- 9 7.0 29.0 0 8
+ 0.1584 25 29 cbr 210 ------- 9 7.0 29.0 0 8
- 0.1584 25 29 cbr 210 ------- 9 7.0 29.0 0 8
r 0.16008 25 29 cbr 210 ------- 9 6.0 29.0 0 7
r 0.17008 25 27 cbr 210 ------- 9 2.0 31.0 0 3
+ 0.17008 27 31 cbr 210 ------- 9 2.0 31.0 0 3
- 0.17008 27 31 cbr 210 ------- 9 2.0 31.0 0 3
r 0.17008 27 31 cbr 210 ------- 9 3.0 31.0 0 4
r 0.17008 25 29 cbr 210 ------- 9 7.0 29.0 0 8
r 0.18176 27 31 cbr 210 ------- 9 2.0 31.0 0 3
+ 0.324031 10 16 tcp 40 ------- 1 10.1 32.1 0 9
- 0.324031 10 16 tcp 40 ------- 1 10.1 32.1 0 9
r 0.334351 10 16 tcp 40 ------- 1 10.1 32.1 0 9
+ 0.334351 16 22 tcp 40 ------- 1 10.1 32.1 0 9
- 0.334351 16 22 tcp 40 ------- 1 10.1 32.1 0 9
r 0.344671 16 22 tcp 40 ------- 1 10.1 32.1 0 9
+ 0.344671 22 26 tcp 40 ------- 1 10.1 32.1 0 9
- 0.344671 22 26 tcp 40 ------- 1 10.1 32.1 0 9
r 0.354991 22 26 tcp 40 ------- 1 10.1 32.1 0 9
+ 0.354991 26 25 tcp 40 ------- 1 10.1 32.1 0 9
- 0.354991 26 25 tcp 40 ------- 1 10.1 32.1 0 9
r 0.365311 26 25 tcp 40 ------- 1 10.1 32.1 0 9
+ 0.365311 25 27 tcp 40 ------- 1 10.1 32.1 0 9
- 0.365311 25 27 tcp 40 ------- 1 10.1 32.1 0 9
r 0.375631 25 27 tcp 40 ------- 1 10.1 32.1 0 9
+ 0.375631 27 32 tcp 40 ------- 1 10.1 32.1 0 9
- 0.375631 27 32 tcp 40 ------- 1 10.1 32.1 0 9
r 0.385951 27 32 tcp 40 ------- 1 10.1 32.1 0 9
+ 0.385951 32 27 ack 40 ------- 1 32.1 10.1 0 10
- 0.385951 32 27 ack 40 ------- 1 32.1 10.1 0 10
r 0.396271 32 27 ack 40 ------- 1 32.1 10.1 0 10
+ 0.396271 27 25 ack 40 ------- 1 32.1 10.1 0 10
- 0.396271 27 25 ack 40 ------- 1 32.1 10.1 0 10
r 0.406591 27 25 ack 40 ------- 1 32.1 10.1 0 10
+ 0.406591 25 26 ack 40 ------- 1 32.1 10.1 0 10
- 0.406591 25 26 ack 40 ------- 1 32.1 10.1 0 10
+ 0.409159 9 13 tcp 40 ------- 0 9.1 32.0 0 11
- 0.409159 9 13 tcp 40 ------- 0 9.1 32.0 0 11
r 0.416911 25 26 ack 40 ------- 1 32.1 10.1 0 10
+ 0.416911 26 22 ack 40 ------- 1 32.1 10.1 0 10
- 0.416911 26 22 ack 40 ------- 1 32.1 10.1 0 10
r 0.419479 9 13 tcp 40 ------- 0 9.1 32.0 0 11
+ 0.419479 13 21 tcp 40 ------- 0 9.1 32.0 0 11
- 0.419479 13 21 tcp 40 ------- 0 9.1 32.0 0 11
+ 0.423091 11 17 tcp 40 ------- 2 11.1 32.2 0 12
- 0.423091 11 17 tcp 40 ------- 2 11.1 32.2 0 12
r 0.427231 26 22 ack 40 ------- 1 32.1 10.1 0 10
+ 0.427231 22 16 ack 40 ------- 1 32.1 10.1 0 10
- 0.427231 22 16 ack 40 ------- 1 32.1 10.1 0 10
r 0.429799 13 21 tcp 40 ------- 0 9.1 32.0 0 11
+ 0.429799 21 27 tcp 40 ------- 0 9.1 32.0 0 11
- 0.429799 21 27 tcp 40 ------- 0 9.1 32.0 0 11
r 0.433411 11 17 tcp 40 ------- 2 11.1 32.2 0 12
+ 0.433411 17 26 tcp 40 ------- 2 11.1 32.2 0 12
- 0.433411 17 26 tcp 40 ------- 2 11.1 32.2 0 12
r 0.437551 22 16 ack 40 ------- 1 32.1 10.1 0 10
+ 0.437551 16 10 ack 40 ------- 1 32.1 10.1 0 10
- 0.437551 16 10 ack 40 ------- 1 32.1 10.1 0 10
r 0.440119 21 27 tcp 40 ------- 0 9.1 32.0 0 11
+ 0.440119 27 32 tcp 40 ------- 0 9.1 32.0 0 11
- 0.440119 27 32 tcp 40 ------- 0 9.1 32.0 0 11
r 0.443731 17 26 tcp 40 ------- 2 11.1 32.2 0 12
+ 0.443731 26 25 tcp 40 ------- 2 11.1 32.2 0 12
- 0.443731 26 25 tcp 40 ------- 2 11.1 32.2 0 12
r 0.447871 16 10 ack 40 ------- 1 32.1 10.1 0 10
+ 0.447871 10 16 tcp 40 ------- 1 10.1 32.1 1 13
- 0.447871 10 16 tcp 40 ------- 1 10.1 32.1 1 13
+ 0.447871 10 16 tcp 83 ------- 1 10.1 32.1 1 14
- 0.448191 10 16 tcp 83 ------- 1 10.1 32.1 1 14
r 0.450439 27 32 tcp 40 ------- 0 9.1 32.0 0 11
+ 0.450439 32 27 ack 40 ------- 0 32.0 9.1 0 15
- 0.450439 32 27 ack 40 ------- 0 32.0 9.1 0 15
r 0.454051 26 25 tcp 40 ------- 2 11.1 32.2 0 12
+ 0.454051 25 27 tcp 40 ------- 2 11.1 32.2 0 12
- 0.454051 25 27 tcp 40 ------- 2 11.1 32.2 0 12
r 0.458191 10 16 tcp 40 ------- 1 10.1 32.1 1 13
+ 0.458191 16 22 tcp 40 ------- 1 10.1 32.1 1 13
- 0.458191 16 22 tcp 40 ------- 1 10.1 32.1 1 13
r 0.458855 10 16 tcp 83 ------- 1 10.1 32.1 1 14
+ 0.458855 16 22 tcp 83 ------- 1 10.1 32.1 1 14
- 0.458855 16 22 tcp 83 ------- 1 10.1 32.1 1 14
r 0.460759 32 27 ack 40 ------- 0 32.0 9.1 0 15
+ 0.460759 27 21 ack 40 ------- 0 32.0 9.1 0 15
- 0.460759 27 21 ack 40 ------- 0 32.0 9.1 0 15
r 0.464371 25 27 tcp 40 ------- 2 11.1 32.2 0 12
+ 0.464371 27 32 tcp 40 ------- 2 11.1 32.2 0 12
- 0.464371 27 32 tcp 40 ------- 2 11.1 32.2 0 12
r 0.468511 16 22 tcp 40 ------- 1 10.1 32.1 1 13
+ 0.468511 22 26 tcp 40 ------- 1 10.1 32.1 1 13
- 0.468511 22 26 tcp 40 ------- 1 10.1 32.1 1 13
r 0.469519 16 22 tcp 83 ------- 1 10.1 32.1 1 14
+ 0.469519 22 26 tcp 83 ------- 1 10.1 32.1 1 14
- 0.469519 22 26 tcp 83 ------- 1 10.1 32.1 1 14
r 0.471079 27 21 ack 40 ------- 0 32.0 9.1 0 15
+ 0.471079 21 13 ack 40 ------- 0 32.0 9.1 0 15
- 0.471079 21 13 ack 40 ------- 0 32.0 9.1 0 15
r 0.474691 27 32 tcp 40 ------- 2 11.1 32.2 0 12
+ 0.474691 32 27 ack 40 ------- 2 32.2 11.1 0 16
- 0.474691 32 27 ack 40 ------- 2 32.2 11.1 0 16
r 0.478831 22 26 tcp 40 ------- 1 10.1 32.1 1 13
+ 0.478831 26 25 tcp 40 ------- 1 10.1 32.1 1 13
- 0.478831 26 25 tcp 40 ------- 1 10.1 32.1 1 13
r 0.480183 22 26 tcp 83 ------- 1 10.1 32.1 1 14
+ 0.480183 26 25 tcp 83 ------- 1 10.1 32.1 1 14
- 0.480183 26 25 tcp 83 ------- 1 10.1 32.1 1 14
r 0.481399 21 13 ack 40 ------- 0 32.0 9.1 0 15
+ 0.481399 13 9 ack 40 ------- 0 32.0 9.1 0 15
- 0.481399 13 9 ack 40 ------- 0 32.0 9.1 0 15
r 0.485011 32 27 ack 40 ------- 2 32.2 11.1 0 16
+ 0.485011 27 25 ack 40 ------- 2 32.2 11.1 0 16
- 0.485011 27 25 ack 40 ------- 2 32.2 11.1 0 16
r 0.489151 26 25 tcp 40 ------- 1 10.1 32.1 1 13
+ 0.489151 25 27 tcp 40 ------- 1 10.1 32.1 1 13
- 0.489151 25 27 tcp 40 ------- 1 10.1 32.1 1 13
r 0.490847 26 25 tcp 83 ------- 1 10.1 32.1 1 14
+ 0.490847 25 27 tcp 83 ------- 1 10.1 32.1 1 14
- 0.490847 25 27 tcp 83 ------- 1 10.1 32.1 1 14
r 0.491719 13 9 ack 40 ------- 0 32.0 9.1 0 15
+ 0.491719 9 13 tcp 40 ------- 0 9.1 32.0 1 17
- 0.491719 9 13 tcp 40 ------- 0 9.1 32.0 1 17
+ 0.491719 9 13 tcp 83 ------- 0 9.1 32.0 1 18
- 0.492039 9 13 tcp 83 ------- 0 9.1 32.0 1 18
r 0.495331 27 25 ack 40 ------- 2 32.2 11.1 0 16
+ 0.495331 25 26 ack 40 ------- 2 32.2 11.1 0 16
- 0.495331 25 26 ack 40 ------- 2 32.2 11.1 0 16
r 0.499471 25 27 tcp 40 ------- 1 10.1 32.1 1 13
+ 0.499471 27 32 tcp 40 ------- 1 10.1 32.1 1 13
- 0.499471 27 32 tcp 40 ------- 1 10.1 32.1 1 13
r 0.501511 25 27 tcp 83 ------- 1 10.1 32.1 1 14
+ 0.501511 27 32 tcp 83 ------- 1 10.1 32.1 1 14
- 0.501511 27 32 tcp 83 ------- 1 10.1 32.1 1 14
r 0.502039 9 13 tcp 40 ------- 0 9.1 32.0 1 17
+ 0.502039 13 21 tcp 40 ------- 0 9.1 32.0 1 17
- 0.502039 13 21 tcp 40 ------- 0 9.1 32.0 1 17
r 0.502703 9 13 tcp 83 ------- 0 9.1 32.0 1 18
+ 0.502703 13 21 tcp 83 ------- 0 9.1 32.0 1 18
- 0.502703 13 21 tcp 83 ------- 0 9.1 32.0 1 18
r 0.505651 25 26 ack 40 ------- 2 32.2 11.1 0 16
+ 0.505651 26 17 ack 40 ------- 2 32.2 11.1 0 16
- 0.505651 26 17 ack 40 ------- 2 32.2 11.1 0 16
r 0.509791 27 32 tcp 40 ------- 1 10.1 32.1 1 13
r 0.512175 27 32 tcp 83 ------- 1 10.1 32.1 1 14
+ 0.512175 32 27 ack 576 ------- 1 32.1 10.1 1 19
- 0.512175 32 27 ack 576 ------- 1 32.1 10.1 1 19
r 0.512359 13 21 tcp 40 ------- 0 9.1 32.0 1 17
+ 0.512359 21 27 tcp 40 ------- 0 9.1 32.0 1 17
- 0.512359 21 27 tcp 40 ------- 0 9.1 32.0 1 17
r 0.513367 13 21 tcp 83 ------- 0 9.1 32.0 1 18
+ 0.513367 21 27 tcp 83 ------- 0 9.1 32.0 1 18
- 0.513367 21 27 tcp 83 ------- 0 9.1 32.0 1 18
r 0.515971 26 17 ack 40 ------- 2 32.2 11.1 0 16
+ 0.515971 17 11 ack 40 ------- 2 32.2 11.1 0 16
- 0.515971 17 11 ack 40 ------- 2 32.2 11.1 0 16
r 0.522679 21 27 tcp 40 ------- 0 9.1 32.0 1 17
+ 0.522679 27 32 tcp 40 ------- 0 9.1 32.0 1 17
- 0.522679 27 32 tcp 40 ------- 0 9.1 32.0 1 17
r 0.524031 21 27 tcp 83 ------- 0 9.1 32.0 1 18
+ 0.524031 27 32 tcp 83 ------- 0 9.1 32.0 1 18
- 0.524031 27 32 tcp 83 ------- 0 9.1 32.0 1 18
r 0.526291 17 11 ack 40 ------- 2 32.2 11.1 0 16
+ 0.526291 11 17 tcp 40 ------- 2 11.1 32.2 1 20
- 0.526291 11 17 tcp 40 ------- 2 11.1 32.2 1 20
+ 0.526291 11 17 tcp 83 ------- 2 11.1 32.2 1 21
- 0.526611 11 17 tcp 83 ------- 2 11.1 32.2 1 21
r 0.526783 32 27 ack 576 ------- 1 32.1 10.1 1 19
+ 0.526783 27 25 ack 576 ------- 1 32.1 10.1 1 19
- 0.526783 27 25 ack 576 ------- 1 32.1 10.1 1 19
r 0.532999 27 32 tcp 40 ------- 0 9.1 32.0 1 17
r 0.534695 27 32 tcp 83 ------- 0 9.1 32.0 1 18
+ 0.534695 32 27 ack 576 ------- 0 32.0 9.1 1 22
- 0.534695 32 27 ack 576 ------- 0 32.0 9.1 1 22
r 0.536611 11 17 tcp 40 ------- 2 11.1 32.2 1 20
+ 0.536611 17 26 tcp 40 ------- 2 11.1 32.2 1 20
- 0.536611 17 26 tcp 40 ------- 2 11.1 32.2 1 20
r 0.537275 11 17 tcp 83 ------- 2 11.1 32.2 1 21
+ 0.537275 17 26 tcp 83 ------- 2 11.1 32.2 1 21
- 0.537275 17 26 tcp 83 ------- 2 11.1 32.2 1 21
r 0.541391 27 25 ack 576 ------- 1 32.1 10.1 1 19
+ 0.541391 25 26 ack 576 ------- 1 32.1 10.1 1 19
- 0.541391 25 26 ack 576 ------- 1 32.1 10.1 1 19
r 0.546931 17 26 tcp 40 ------- 2 11.1 32.2 1 20
+ 0.546931 26 25 tcp 40 ------- 2 11.1 32.2 1 20
- 0.546931 26 25 tcp 40 ------- 2 11.1 32.2 1 20
r 0.547939 17 26 tcp 83 ------- 2 11.1 32.2 1 21
+ 0.547939 26 25 tcp 83 ------- 2 11.1 32.2 1 21
- 0.547939 26 25 tcp 83 ------- 2 11.1 32.2 1 21
r 0.549303 32 27 ack 576 ------- 0 32.0 9.1 1 22
+ 0.549303 27 21 ack 576 ------- 0 32.0 9.1 1 22
- 0.549303 27 21 ack 576 ------- 0 32.0 9.1 1 22
r 0.555999 25 26 ack 576 ------- 1 32.1 10.1 1 19
+ 0.555999 26 22 ack 576 ------- 1 32.1 10.1 1 19
- 0.555999 26 22 ack 576 ------- 1 32.1 10.1 1 19
r 0.557251 26 25 tcp 40 ------- 2 11.1 32.2 1 20
+ 0.557251 25 27 tcp 40 ------- 2 11.1 32.2 1 20
- 0.557251 25 27 tcp 40 ------- 2 11.1 32.2 1 20
r 0.558603 26 25 tcp 83 ------- 2 11.1 32.2 1 21
+ 0.558603 25 27 tcp 83 ------- 2 11.1 32.2 1 21
- 0.558603 25 27 tcp 83 ------- 2 11.1 32.2 1 21
r 0.563911 27 21 ack 576 ------- 0 32.0 9.1 1 22
+ 0.563911 21 13 ack 576 ------- 0 32.0 9.1 1 22
- 0.563911 21 13 ack 576 ------- 0 32.0 9.1 1 22
r 0.567571 25 27 tcp 40 ------- 2 11.1 32.2 1 20
+ 0.567571 27 32 tcp 40 ------- 2 11.1 32.2 1 20
- 0.567571 27 32 tcp 40 ------- 2 11.1 32.2 1 20
r 0.569267 25 27 tcp 83 ------- 2 11.1 32.2 1 21
+ 0.569267 27 32 tcp 83 ------- 2 11.1 32.2 1 21
- 0.569267 27 32 tcp 83 ------- 2 11.1 32.2 1 21
r 0.570607 26 22 ack 576 ------- 1 32.1 10.1 1 19
+ 0.570607 22 16 ack 576 ------- 1 32.1 10.1 1 19
- 0.570607 22 16 ack 576 ------- 1 32.1 10.1 1 19
r 0.577891 27 32 tcp 40 ------- 2 11.1 32.2 1 20
r 0.578519 21 13 ack 576 ------- 0 32.0 9.1 1 22
+ 0.578519 13 9 ack 576 ------- 0 32.0 9.1 1 22
- 0.578519 13 9 ack 576 ------- 0 32.0 9.1 1 22
r 0.579931 27 32 tcp 83 ------- 2 11.1 32.2 1 21
+ 0.579931 32 27 ack 576 ------- 2 32.2 11.1 1 23
- 0.579931 32 27 ack 576 ------- 2 32.2 11.1 1 23
r 0.585215 22 16 ack 576 ------- 1 32.1 10.1 1 19
+ 0.585215 16 10 ack 576 ------- 1 32.1 10.1 1 19
- 0.585215 16 10 ack 576 ------- 1 32.1 10.1 1 19
r 0.593127 13 9 ack 576 ------- 0 32.0 9.1 1 22
+ 0.593127 9 13 tcp 40 ------- 0 9.1 32.0 44 24
- 0.593127 9 13 tcp 40 ------- 0 9.1 32.0 44 24
r 0.594539 32 27 ack 576 ------- 2 32.2 11.1 1 23
+ 0.594539 27 25 ack 576 ------- 2 32.2 11.1 1 23
- 0.594539 27 25 ack 576 ------- 2 32.2 11.1 1 23
r 0.599823 16 10 ack 576 ------- 1 32.1 10.1 1 19
+ 0.599823 10 16 tcp 40 ------- 1 10.1 32.1 44 25
- 0.599823 10 16 tcp 40 ------- 1 10.1 32.1 44 25
r 0.603447 9 13 tcp 40 ------- 0 9.1 32.0 44 24
+ 0.603447 13 21 tcp 40 ------- 0 9.1 32.0 44 24
- 0.603447 13 21 tcp 40 ------- 0 9.1 32.0 44 24
r 0.609147 27 25 ack 576 ------- 2 32.2 11.1 1 23
+ 0.609147 25 26 ack 576 ------- 2 32.2 11.1 1 23
- 0.609147 25 26 ack 576 ------- 2 32.2 11.1 1 23
r 0.610143 10 16 tcp 40 ------- 1 10.1 32.1 44 25
+ 0.610143 16 22 tcp 40 ------- 1 10.1 32.1 44 25
- 0.610143 16 22 tcp 40 ------- 1 10.1 32.1 44 25
r 0.613767 13 21 tcp 40 ------- 0 9.1 32.0 44 24
+ 0.613767 21 27 tcp 40 ------- 0 9.1 32.0 44 24
- 0.613767 21 27 tcp 40 ------- 0 9.1 32.0 44 24
r 0.620463 16 22 tcp 40 ------- 1 10.1 32.1 44 25
+ 0.620463 22 26 tcp 40 ------- 1 10.1 32.1 44 25
- 0.620463 22 26 tcp 40 ------- 1 10.1 32.1 44 25
r 0.623755 25 26 ack 576 ------- 2 32.2 11.1 1 23
+ 0.623755 26 17 ack 576 ------- 2 32.2 11.1 1 23
- 0.623755 26 17 ack 576 ------- 2 32.2 11.1 1 23
r 0.624087 21 27 tcp 40 ------- 0 9.1 32.0 44 24
+ 0.624087 27 32 tcp 40 ------- 0 9.1 32.0 44 24
- 0.624087 27 32 tcp 40 ------- 0 9.1 32.0 44 24
r 0.630783 22 26 tcp 40 ------- 1 10.1 32.1 44 25
+ 0.630783 26 25 tcp 40 ------- 1 10.1 32.1 44 25
- 0.630783 26 25 tcp 40 ------- 1 10.1 32.1 44 25
r 0.634407 27 32 tcp 40 ------- 0 9.1 32.0 44 24
+ 0.634407 32 27 ack 528 ------- 0 32.0 9.1 537 26
- 0.634407 32 27 ack 528 ------- 0 32.0 9.1 537 26
r 0.638363 26 17 ack 576 ------- 2 32.2 11.1 1 23
+ 0.638363 17 11 ack 576 ------- 2 32.2 11.1 1 23
- 0.638363 17 11 ack 576 ------- 2 32.2 11.1 1 23
r 0.641103 26 25 tcp 40 ------- 1 10.1 32.1 44 25
+ 0.641103 25 27 tcp 40 ------- 1 10.1 32.1 44 25
- 0.641103 25 27 tcp 40 ------- 1 10.1 32.1 44 25
r 0.648631 32 27 ack 528 ------- 0 32.0 9.1 537 26
+ 0.648631 27 21 ack 528 ------- 0 32.0 9.1 537 26
- 0.648631 27 21 ack 528 ------- 0 32.0 9.1 537 26
r 0.651423 25 27 tcp 40 ------- 1 10.1 32.1 44 25
+ 0.651423 27 32 tcp 40 ------- 1 10.1 32.1 44 25
- 0.651423 27 32 tcp 40 ------- 1 10.1 32.1 44 25
r 0.652971 17 11 ack 576 ------- 2 32.2 11.1 1 23
+ 0.652971 11 17 tcp 40 ------- 2 11.1 32.2 44 27
- 0.652971 11 17 tcp 40 ------- 2 11.1 32.2 44 27
r 0.661743 27 32 tcp 40 ------- 1 10.1 32.1 44 25
+ 0.661743 32 27 ack 528 ------- 1 32.1 10.1 537 28
- 0.661743 32 27 ack 528 ------- 1 32.1 10.1 537 28
r 0.662855 27 21 ack 528 ------- 0 32.0 9.1 537 26
+ 0.662855 21 13 ack 528 ------- 0 32.0 9.1 537 26
- 0.662855 21 13 ack 528 ------- 0 32.0 9.1 537 26
r 0.663291 11 17 tcp 40 ------- 2 11.1 32.2 44 27
+ 0.663291 17 26 tcp 40 ------- 2 11.1 32.2 44 27
- 0.663291 17 26 tcp 40 ------- 2 11.1 32.2 44 27
r 0.673611 17 26 tcp 40 ------- 2 11.1 32.2 44 27
+ 0.673611 26 25 tcp 40 ------- 2 11.1 32.2 44 27
- 0.673611 26 25 tcp 40 ------- 2 11.1 32.2 44 27
r 0.675967 32 27 ack 528 ------- 1 32.1 10.1 537 28
+ 0.675967 27 25 ack 528 ------- 1 32.1 10.1 537 28
- 0.675967 27 25 ack 528 ------- 1 32.1 10.1 537 28
r 0.677079 21 13 ack 528 ------- 0 32.0 9.1 537 26
+ 0.677079 13 9 ack 528 ------- 0 32.0 9.1 537 26
- 0.677079 13 9 ack 528 ------- 0 32.0 9.1 537 26
r 0.683931 26 25 tcp 40 ------- 2 11.1 32.2 44 27
+ 0.683931 25 27 tcp 40 ------- 2 11.1 32.2 44 27
- 0.683931 25 27 tcp 40 ------- 2 11.1 32.2 44 27
r 0.690191 27 25 ack 528 ------- 1 32.1 10.1 537 28
+ 0.690191 25 26 ack 528 ------- 1 32.1 10.1 537 28
- 0.690191 25 26 ack 528 ------- 1 32.1 10.1 537 28
r 0.691303 13 9 ack 528 ------- 0 32.0 9.1 537 26
r 0.694251 25 27 tcp 40 ------- 2 11.1 32.2 44 27
+ 0.694251 27 32 tcp 40 ------- 2 11.1 32.2 44 27
- 0.694251 27 32 tcp 40 ------- 2 11.1 32.2 44 27
v 0.69603791110001123 eval {set sim_annotation {S 32 INV _o772:0}}
+ 0.7 9 13 tcp 40 ------- 0 9.1 32.0 44 29
- 0.7 9 13 tcp 40 ------- 0 9.1 32.0 44 29
r 0.704415 25 26 ack 528 ------- 1 32.1 10.1 537 28
+ 0.704415 26 22 ack 528 ------- 1 32.1 10.1 537 28
- 0.704415 26 22 ack 528 ------- 1 32.1 10.1 537 28
r 0.704571 27 32 tcp 40 ------- 2 11.1 32.2 44 27
+ 0.704571 32 27 ack 528 ------- 2 32.2 11.1 537 30
- 0.704571 32 27 ack 528 ------- 2 32.2 11.1 537 30
r 0.71032 9 13 tcp 40 ------- 0 9.1 32.0 44 29
+ 0.71032 13 21 tcp 40 ------- 0 9.1 32.0 44 29
- 0.71032 13 21 tcp 40 ------- 0 9.1 32.0 44 29
r 0.718639 26 22 ack 528 ------- 1 32.1 10.1 537 28
+ 0.718639 22 16 ack 528 ------- 1 32.1 10.1 537 28
- 0.718639 22 16 ack 528 ------- 1 32.1 10.1 537 28
r 0.718795 32 27 ack 528 ------- 2 32.2 11.1 537 30
+ 0.718795 27 25 ack 528 ------- 2 32.2 11.1 537 30
- 0.718795 27 25 ack 528 ------- 2 32.2 11.1 537 30
r 0.72064 13 21 tcp 40 ------- 0 9.1 32.0 44 29
+ 0.72064 21 27 tcp 40 ------- 0 9.1 32.0 44 29
- 0.72064 21 27 tcp 40 ------- 0 9.1 32.0 44 29
r 0.73096 21 27 tcp 40 ------- 0 9.1 32.0 44 29
+ 0.73096 27 32 tcp 40 ------- 0 9.1 32.0 44 29
- 0.73096 27 32 tcp 40 ------- 0 9.1 32.0 44 29
r 0.732863 22 16 ack 528 ------- 1 32.1 10.1 537 28
+ 0.732863 16 10 ack 528 ------- 1 32.1 10.1 537 28
- 0.732863 16 10 ack 528 ------- 1 32.1 10.1 537 28
r 0.733019 27 25 ack 528 ------- 2 32.2 11.1 537 30
+ 0.733019 25 26 ack 528 ------- 2 32.2 11.1 537 30
- 0.733019 25 26 ack 528 ------- 2 32.2 11.1 537 30
r 0.74128 27 32 tcp 40 ------- 0 9.1 32.0 44 29
r 0.747087 16 10 ack 528 ------- 1 32.1 10.1 537 28
r 0.747243 25 26 ack 528 ------- 2 32.2 11.1 537 30
+ 0.747243 26 17 ack 528 ------- 2 32.2 11.1 537 30
- 0.747243 26 17 ack 528 ------- 2 32.2 11.1 537 30
r 0.761467 26 17 ack 528 ------- 2 32.2 11.1 537 30
+ 0.761467 17 11 ack 528 ------- 2 32.2 11.1 537 30
- 0.761467 17 11 ack 528 ------- 2 32.2 11.1 537 30
v 0.77024889075257241 eval {set sim_annotation {S 32 INV _o772:0}}
r 0.775691 17 11 ack 528 ------- 2 32.2 11.1 537 30
+ 0.8 10 16 tcp 40 ------- 1 10.1 32.1 44 31
- 0.8 10 16 tcp 40 ------- 1 10.1 32.1 44 31
+ 0.8 11 17 tcp 40 ------- 2 11.1 32.2 44 32
- 0.8 11 17 tcp 40 ------- 2 11.1 32.2 44 32
+ 0.804751 11 17 tcp 83 ------- 2 11.1 32.2 44 33
- 0.804751 11 17 tcp 83 ------- 2 11.1 32.2 44 33
r 0.81032 10 16 tcp 40 ------- 1 10.1 32.1 44 31
+ 0.81032 16 22 tcp 40 ------- 1 10.1 32.1 44 31
- 0.81032 16 22 tcp 40 ------- 1 10.1 32.1 44 31
r 0.81032 11 17 tcp 40 ------- 2 11.1 32.2 44 32
+ 0.81032 17 26 tcp 40 ------- 2 11.1 32.2 44 32
- 0.81032 17 26 tcp 40 ------- 2 11.1 32.2 44 32
r 0.815415 11 17 tcp 83 ------- 2 11.1 32.2 44 33
+ 0.815415 17 26 tcp 83 ------- 2 11.1 32.2 44 33
- 0.815415 17 26 tcp 83 ------- 2 11.1 32.2 44 33
r 0.82064 16 22 tcp 40 ------- 1 10.1 32.1 44 31
+ 0.82064 22 26 tcp 40 ------- 1 10.1 32.1 44 31
- 0.82064 22 26 tcp 40 ------- 1 10.1 32.1 44 31
r 0.82064 17 26 tcp 40 ------- 2 11.1 32.2 44 32
+ 0.82064 26 25 tcp 40 ------- 2 11.1 32.2 44 32
- 0.82064 26 25 tcp 40 ------- 2 11.1 32.2 44 32
r 0.826079 17 26 tcp 83 ------- 2 11.1 32.2 44 33
+ 0.826079 26 25 tcp 83 ------- 2 11.1 32.2 44 33
- 0.826079 26 25 tcp 83 ------- 2 11.1 32.2 44 33
r 0.83096 22 26 tcp 40 ------- 1 10.1 32.1 44 31
+ 0.83096 26 25 tcp 40 ------- 1 10.1 32.1 44 31
- 0.83096 26 25 tcp 40 ------- 1 10.1 32.1 44 31
r 0.83096 26 25 tcp 40 ------- 2 11.1 32.2 44 32
+ 0.83096 25 27 tcp 40 ------- 2 11.1 32.2 44 32
- 0.83096 25 27 tcp 40 ------- 2 11.1 32.2 44 32
r 0.836743 26 25 tcp 83 ------- 2 11.1 32.2 44 33
+ 0.836743 25 27 tcp 83 ------- 2 11.1 32.2 44 33
- 0.836743 25 27 tcp 83 ------- 2 11.1 32.2 44 33
r 0.84128 26 25 tcp 40 ------- 1 10.1 32.1 44 31
+ 0.84128 25 27 tcp 40 ------- 1 10.1 32.1 44 31
- 0.84128 25 27 tcp 40 ------- 1 10.1 32.1 44 31
r 0.84128 25 27 tcp 40 ------- 2 11.1 32.2 44 32
+ 0.84128 27 32 tcp 40 ------- 2 11.1 32.2 44 32
- 0.84128 27 32 tcp 40 ------- 2 11.1 32.2 44 32
r 0.847407 25 27 tcp 83 ------- 2 11.1 32.2 44 33
+ 0.847407 27 32 tcp 83 ------- 2 11.1 32.2 44 33
- 0.847407 27 32 tcp 83 ------- 2 11.1 32.2 44 33
+ 0.850744 10 16 tcp 83 ---A--- 1 10.1 32.1 44 34
- 0.850744 10 16 tcp 83 ---A--- 1 10.1 32.1 44 34
r 0.8516 25 27 tcp 40 ------- 1 10.1 32.1 44 31
+ 0.8516 27 32 tcp 40 ------- 1 10.1 32.1 44 31
- 0.8516 27 32 tcp 40 ------- 1 10.1 32.1 44 31
r 0.8516 27 32 tcp 40 ------- 2 11.1 32.2 44 32
+ 0.856563 9 13 tcp 83 ---A--- 0 9.1 32.0 44 35
- 0.856563 9 13 tcp 83 ---A--- 0 9.1 32.0 44 35
v 0.85752964106266993 eval {set sim_annotation {S 32 INV _o772:0}}
r 0.858071 27 32 tcp 83 ------- 2 11.1 32.2 44 33
+ 0.858071 32 27 ack 576 ------- 2 32.2 11.1 1025 36
- 0.858071 32 27 ack 576 ------- 2 32.2 11.1 1025 36
r 0.861408 10 16 tcp 83 ---A--- 1 10.1 32.1 44 34
+ 0.861408 16 22 tcp 83 ---A--- 1 10.1 32.1 44 34
- 0.861408 16 22 tcp 83 ---A--- 1 10.1 32.1 44 34
r 0.86192 27 32 tcp 40 ------- 1 10.1 32.1 44 31
r 0.867227 9 13 tcp 83 ---A--- 0 9.1 32.0 44 35
+ 0.867227 13 21 tcp 83 ---A--- 0 9.1 32.0 44 35
- 0.867227 13 21 tcp 83 ---A--- 0 9.1 32.0 44 35
r 0.872072 16 22 tcp 83 ---A--- 1 10.1 32.1 44 34
+ 0.872072 22 26 tcp 83 ---A--- 1 10.1 32.1 44 34
- 0.872072 22 26 tcp 83 ---A--- 1 10.1 32.1 44 34
r 0.872679 32 27 ack 576 ------- 2 32.2 11.1 1025 36
+ 0.872679 27 25 ack 576 ------- 2 32.2 11.1 1025 36
- 0.872679 27 25 ack 576 ------- 2 32.2 11.1 1025 36
r 0.877891 13 21 tcp 83 ---A--- 0 9.1 32.0 44 35
+ 0.877891 21 27 tcp 83 ---A--- 0 9.1 32.0 44 35
- 0.877891 21 27 tcp 83 ---A--- 0 9.1 32.0 44 35
r 0.882736 22 26 tcp 83 ---A--- 1 10.1 32.1 44 34
+ 0.882736 26 25 tcp 83 ---A--- 1 10.1 32.1 44 34
- 0.882736 26 25 tcp 83 ---A--- 1 10.1 32.1 44 34
r 0.887287 27 25 ack 576 ------- 2 32.2 11.1 1025 36
+ 0.887287 25 26 ack 576 ------- 2 32.2 11.1 1025 36
- 0.887287 25 26 ack 576 ------- 2 32.2 11.1 1025 36
r 0.888555 21 27 tcp 83 ---A--- 0 9.1 32.0 44 35
+ 0.888555 27 32 tcp 83 ---A--- 0 9.1 32.0 44 35
- 0.888555 27 32 tcp 83 ---A--- 0 9.1 32.0 44 35
r 0.8934 26 25 tcp 83 ---A--- 1 10.1 32.1 44 34
+ 0.8934 25 27 tcp 83 ---A--- 1 10.1 32.1 44 34
- 0.8934 25 27 tcp 83 ---A--- 1 10.1 32.1 44 34
r 0.899219 27 32 tcp 83 ---A--- 0 9.1 32.0 44 35
+ 0.899219 32 27 ack 576 ---A--- 0 32.0 9.1 1025 37
- 0.899219 32 27 ack 576 ---A--- 0 32.0 9.1 1025 37
r 0.901895 25 26 ack 576 ------- 2 32.2 11.1 1025 36
+ 0.901895 26 17 ack 576 ------- 2 32.2 11.1 1025 36
- 0.901895 26 17 ack 576 ------- 2 32.2 11.1 1025 36
r 0.904064 25 27 tcp 83 ---A--- 1 10.1 32.1 44 34
+ 0.904064 27 32 tcp 83 ---A--- 1 10.1 32.1 44 34
- 0.904064 27 32 tcp 83 ---A--- 1 10.1 32.1 44 34
r 0.913827 32 27 ack 576 ---A--- 0 32.0 9.1 1025 37
+ 0.913827 27 21 ack 576 ---A--- 0 32.0 9.1 1025 37
- 0.913827 27 21 ack 576 ---A--- 0 32.0 9.1 1025 37
r 0.914728 27 32 tcp 83 ---A--- 1 10.1 32.1 44 34
+ 0.914728 32 27 ack 576 ------- 1 32.1 10.1 1025 38
- 0.914728 32 27 ack 576 ------- 1 32.1 10.1 1025 38
r 0.916503 26 17 ack 576 ------- 2 32.2 11.1 1025 36
+ 0.916503 17 11 ack 576 ------- 2 32.2 11.1 1025 36
- 0.916503 17 11 ack 576 ------- 2 32.2 11.1 1025 36
r 0.928435 27 21 ack 576 ---A--- 0 32.0 9.1 1025 37
+ 0.928435 21 13 ack 576 ---A--- 0 32.0 9.1 1025 37
- 0.928435 21 13 ack 576 ---A--- 0 32.0 9.1 1025 37
r 0.929336 32 27 ack 576 ------- 1 32.1 10.1 1025 38
+ 0.929336 27 25 ack 576 ------- 1 32.1 10.1 1025 38
- 0.929336 27 25 ack 576 ------- 1 32.1 10.1 1025 38
r 0.931111 17 11 ack 576 ------- 2 32.2 11.1 1025 36
+ 0.931111 11 17 tcp 40 ------- 2 11.1 32.2 87 39
- 0.931111 11 17 tcp 40 ------- 2 11.1 32.2 87 39
r 0.941431 11 17 tcp 40 ------- 2 11.1 32.2 87 39
+ 0.941431 17 26 tcp 40 ------- 2 11.1 32.2 87 39
- 0.941431 17 26 tcp 40 ------- 2 11.1 32.2 87 39
r 0.943043 21 13 ack 576 ---A--- 0 32.0 9.1 1025 37
+ 0.943043 13 9 ack 576 ---A--- 0 32.0 9.1 1025 37
- 0.943043 13 9 ack 576 ---A--- 0 32.0 9.1 1025 37
r 0.943944 27 25 ack 576 ------- 1 32.1 10.1 1025 38
+ 0.943944 25 26 ack 576 ------- 1 32.1 10.1 1025 38
- 0.943944 25 26 ack 576 ------- 1 32.1 10.1 1025 38
r 0.951751 17 26 tcp 40 ------- 2 11.1 32.2 87 39
+ 0.951751 26 25 tcp 40 ------- 2 11.1 32.2 87 39
- 0.951751 26 25 tcp 40 ------- 2 11.1 32.2 87 39
r 0.957651 13 9 ack 576 ---A--- 0 32.0 9.1 1025 37
+ 0.957651 9 13 tcp 40 ------- 0 9.1 32.0 87 40
- 0.957651 9 13 tcp 40 ------- 0 9.1 32.0 87 40
r 0.958552 25 26 ack 576 ------- 1 32.1 10.1 1025 38
+ 0.958552 26 22 ack 576 ------- 1 32.1 10.1 1025 38
- 0.958552 26 22 ack 576 ------- 1 32.1 10.1 1025 38
r 0.962071 26 25 tcp 40 ------- 2 11.1 32.2 87 39
+ 0.962071 25 27 tcp 40 ------- 2 11.1 32.2 87 39
- 0.962071 25 27 tcp 40 ------- 2 11.1 32.2 87 39
r 0.967971 9 13 tcp 40 ------- 0 9.1 32.0 87 40
+ 0.967971 13 21 tcp 40 ------- 0 9.1 32.0 87 40
- 0.967971 13 21 tcp 40 ------- 0 9.1 32.0 87 40
r 0.972391 25 27 tcp 40 ------- 2 11.1 32.2 87 39
+ 0.972391 27 32 tcp 40 ------- 2 11.1 32.2 87 39
- 0.972391 27 32 tcp 40 ------- 2 11.1 32.2 87 39
r 0.97316 26 22 ack 576 ------- 1 32.1 10.1 1025 38
+ 0.97316 22 16 ack 576 ------- 1 32.1 10.1 1025 38
- 0.97316 22 16 ack 576 ------- 1 32.1 10.1 1025 38
r 0.978291 13 21 tcp 40 ------- 0 9.1 32.0 87 40
+ 0.978291 21 27 tcp 40 ------- 0 9.1 32.0 87 40
- 0.978291 21 27 tcp 40 ------- 0 9.1 32.0 87 40
r 0.982711 27 32 tcp 40 ------- 2 11.1 32.2 87 39
+ 0.982711 32 27 ack 528 ------- 2 32.2 11.1 1561 41
- 0.982711 32 27 ack 528 ------- 2 32.2 11.1 1561 41
r 0.987768 22 16 ack 576 ------- 1 32.1 10.1 1025 38