n -t 0 -s 13 -S DLABEL -l "Router01" -L ""
n -t 0 -s 14 -S DLABEL -l "Router02" -L ""
n -t 0 -s 15 -S DLABEL -l "Router03" -L ""
n -t 0 -s 16 -S DLABEL -l "Router04" -L ""
n -t 0 -s 17 -S DLABEL -l "Router05" -L ""
n -t 0 -s 18 -S DLABEL -l "Router06" -L ""
n -t 0 -s 19 -S DLABEL -l "Router07" -L ""
n -t 0 -s 20 -S DLABEL -l "Router08" -L ""
n -t 0 -s 21 -S DLABEL -l "Router09" -L ""
n -t 0 -s 22 -S DLABEL -l "Router10" -L ""
n -t 0 -s 23 -S DLABEL -l "Router011" -L ""
n -t 0 -s 24 -S DLABEL -l "Router012" -L ""
n -t 0 -s 25 -S DLABEL -l "Router013" -L ""
n -t 0 -s 26 -S DLABEL -l "Router014" -L ""
n -t 0 -s 27 -S DLABEL -l "Router015" -L ""
n -t 0 -s 28 -S DLABEL -l "Router016" -L ""
n -t 0 -s 0 -S DLABEL -l "Bot1" -L ""
n -t 0 -s 1 -S DLABEL -l "Bot2" -L ""
n -t 0 -s 2 -S DLABEL -l "Bot3" -L ""
n -t 0 -s 3 -S DLABEL -l "Bot4" -L ""
n -t 0 -s 4 -S DLABEL -l "Bot5" -L ""
n -t 0 -s 5 -S DLABEL -l "Bot6" -L ""
n -t 0 -s 6 -S DLABEL -l "Bot7" -L ""
n -t 0 -s 7 -S DLABEL -l "Bot8" -L ""
n -t 0 -s 8 -S DLABEL -l "Bot9" -L ""
n -t 0 -s 9 -S DLABEL -l "User1" -L ""
n -t 0 -s 10 -S DLABEL -l "User2" -L ""
n -t 0 -s 11 -S DLABEL -l "User3" -L ""
n -t 0 -s 12 -S DLABEL -l "User4" -L ""
n -t 0 -s 32 -S DLABEL -l "Web Server" -L ""
n -t 0 -s 29 -S DLABEL -l "Decoy1" -L ""
n -t 0 -s 30 -S DLABEL -l "Decoy2" -L ""
n -t 0 -s 31 -S DLABEL -l "Decoy3" -L ""
V -t * -v 1.0a5 -a 0
A -t * -n 1 -p 0 -o 0x7fffffff -c 30 -a 1
A -t * -h 1 -m 1073741823 -s 0
c -t * -i 9 -n Red
n -t * -a 17 -s 17 -S UP -v hexagon -c black -i black
n -t * -a 0 -s 0 -S UP -v circle -c red -i red
n -t * -a 18 -s 18 -S UP -v hexagon -c black -i black
n -t * -a 1 -s 1 -S UP -v circle -c red -i red
n -t * -a 20 -s 20 -S UP -v hexagon -c black -i black
n -t * -a 19 -s 19 -S UP -v hexagon -c black -i black
n -t * -a 2 -s 2 -S UP -v circle -c red -i red
n -t * -a 21 -s 21 -S UP -v hexagon -c black -i black
n -t * -a 3 -s 3 -S UP -v circle -c red -i red
n -t * -a 22 -s 22 -S UP -v hexagon -c black -i black
n -t * -a 4 -s 4 -S UP -v circle -c red -i red
n -t * -a 23 -s 23 -S UP -v hexagon -c black -i black
n -t * -a 5 -s 5 -S UP -v circle -c red -i red
n -t * -a 24 -s 24 -S UP -v hexagon -c black -i black
n -t * -a 6 -s 6 -S UP -v circle -c red -i red
n -t * -a 25 -s 25 -S UP -v hexagon -c black -i black
n -t * -a 7 -s 7 -S UP -v circle -c red -i red
n -t * -a 26 -s 26 -S UP -v hexagon -c black -i black
n -t * -a 8 -s 8 -S UP -v circle -c red -i red
n -t * -a 27 -s 27 -S UP -v hexagon -c black -i black
n -t * -a 9 -s 9 -S UP -v circle -c SteelBlue -i SteelBlue
n -t * -a 10 -s 10 -S UP -v circle -c SteelBlue -i SteelBlue
n -t * -a 28 -s 28 -S UP -v hexagon -c black -i black
n -t * -a 11 -s 11 -S UP -v circle -c SteelBlue -i SteelBlue
n -t * -a 30 -s 30 -S UP -v circle -c yellow -i yellow
n -t * -a 29 -s 29 -S UP -v circle -c yellow -i yellow
n -t * -a 12 -s 12 -S UP -v circle -c SteelBlue -i SteelBlue
n -t * -a 31 -s 31 -S UP -v circle -c yellow -i yellow
n -t * -a 13 -s 13 -S UP -v hexagon -c black -i black
n -t * -a 32 -s 32 -S UP -v circle -c HotPink -i HotPink
n -t * -a 14 -s 14 -S UP -v hexagon -c black -i black
n -t * -a 15 -s 15 -S UP -v hexagon -c black -i black
n -t * -a 16 -s 16 -S UP -v hexagon -c black -i black
l -t * -s 21 -d 28 -S UP -r 1000000 -D 0.01 -c black
l -t * -s 13 -d 21 -S UP -r 1000000 -D 0.01 -c black
l -t * -s 21 -d 14 -S UP -r 1000000 -D 0.01 -c black
l -t * -s 27 -d 21 -S UP -r 1000000 -D 0.01 -c black
l -t * -s 16 -d 15 -S UP -r 1000000 -D 0.01 -c black
l -t * -s 22 -d 16 -S UP -r 1000000 -D 0.01 -c black
l -t * -s 26 -d 22 -S UP -r 1000000 -D 0.01 -c black
l -t * -s 17 -d 26 -S UP -r 1000000 -D 0.01 -c black
l -t * -s 23 -d 18 -S UP -r 1000000 -D 0.01 -c black
l -t * -s 20 -d 24 -S UP -r 1000000 -D 0.01 -c black
l -t * -s 23 -d 24 -S UP -r 1000000 -D 0.01 -c black
l -t * -s 0 -d 13 -S UP -r 1000000 -D 0.01 -c black
l -t * -s 28 -d 8 -S UP -r 1000000 -D 0.01 -c black
l -t * -s 26 -d 25 -S UP -r 1000000 -D 0.01 -c black
l -t * -s 29 -d 25 -S UP -r 1000000 -D 0.01 -c black
l -t * -s 25 -d 27 -S UP -r 1000000 -D 0.01 -c black
l -t * -s 27 -d 23 -S UP -r 1000000 -D 0.01 -c black
l -t * -s 27 -d 32 -S UP -r 1000000 -D 0.01 -c black
l -t * -s 9 -d 13 -S UP -r 1000000 -D 0.01 -c black
l -t * -s 1 -d 14 -S UP -r 1000000 -D 0.01 -c black
l -t * -s 3 -d 16 -S UP -r 1000000 -D 0.01 -c black
l -t * -s 10 -d 16 -S UP -r 1000000 -D 0.01 -c black
l -t * -s 11 -d 17 -S UP -r 1000000 -D 0.01 -c black
l -t * -s 5 -d 18 -S UP -r 1000000 -D 0.01 -c black
l -t * -s 7 -d 20 -S UP -r 1000000 -D 0.01 -c black
l -t * -s 21 -d 25 -S UP -r 1000000 -D 0.01 -c black
l -t * -s 27 -d 30 -S UP -r 1000000 -D 0.01 -c black
l -t * -s 15 -d 2 -S UP -r 1000000 -D 0.01 -c black
l -t * -s 4 -d 17 -S UP -r 1000000 -D 0.01 -c black
l -t * -s 6 -d 19 -S UP -r 1000000 -D 0.01 -c black
l -t * -s 27 -d 31 -S UP -r 1000000 -D 0.01 -c black
l -t * -s 23 -d 19 -S UP -r 1000000 -D 0.01 -c black
l -t * -s 12 -d 19 -S UP -r 1000000 -D 0.01 -c black
+ -t 0.1 -s 0 -d 13 -p cbr -e 210 -c 9 -i 0 -a 9 -x {0.0 30.0 0 ------- null}
- -t 0.1 -s 0 -d 13 -p cbr -e 210 -c 9 -i 0 -a 9 -x {0.0 30.0 0 ------- null}
h -t 0.1 -s 0 -d 13 -p cbr -e 210 -c 9 -i 0 -a 9 -x {0.0 30.0 -1 ------- null}
+ -t 0.1 -s 8 -d 28 -p cbr -e 210 -c 9 -i 1 -a 9 -x {8.0 30.0 0 ------- null}
- -t 0.1 -s 8 -d 28 -p cbr -e 210 -c 9 -i 1 -a 9 -x {8.0 30.0 0 ------- null}
h -t 0.1 -s 8 -d 28 -p cbr -e 210 -c 9 -i 1 -a 9 -x {8.0 30.0 -1 ------- null}
+ -t 0.1 -s 1 -d 14 -p cbr -e 210 -c 9 -i 2 -a 9 -x {1.0 30.0 0 ------- null}
- -t 0.1 -s 1 -d 14 -p cbr -e 210 -c 9 -i 2 -a 9 -x {1.0 30.0 0 ------- null}
h -t 0.1 -s 1 -d 14 -p cbr -e 210 -c 9 -i 2 -a 9 -x {1.0 30.0 -1 ------- null}
+ -t 0.1 -s 2 -d 15 -p cbr -e 210 -c 9 -i 3 -a 9 -x {2.0 31.0 0 ------- null}
- -t 0.1 -s 2 -d 15 -p cbr -e 210 -c 9 -i 3 -a 9 -x {2.0 31.0 0 ------- null}
h -t 0.1 -s 2 -d 15 -p cbr -e 210 -c 9 -i 3 -a 9 -x {2.0 31.0 -1 ------- null}
+ -t 0.1 -s 3 -d 16 -p cbr -e 210 -c 9 -i 4 -a 9 -x {3.0 31.0 0 ------- null}
- -t 0.1 -s 3 -d 16 -p cbr -e 210 -c 9 -i 4 -a 9 -x {3.0 31.0 0 ------- null}
h -t 0.1 -s 3 -d 16 -p cbr -e 210 -c 9 -i 4 -a 9 -x {3.0 31.0 -1 ------- null}
+ -t 0.1 -s 4 -d 17 -p cbr -e 210 -c 9 -i 5 -a 9 -x {4.0 31.0 0 ------- null}
- -t 0.1 -s 4 -d 17 -p cbr -e 210 -c 9 -i 5 -a 9 -x {4.0 31.0 0 ------- null}
h -t 0.1 -s 4 -d 17 -p cbr -e 210 -c 9 -i 5 -a 9 -x {4.0 31.0 -1 ------- null}
+ -t 0.1 -s 5 -d 18 -p cbr -e 210 -c 9 -i 6 -a 9 -x {5.0 29.0 0 ------- null}
- -t 0.1 -s 5 -d 18 -p cbr -e 210 -c 9 -i 6 -a 9 -x {5.0 29.0 0 ------- null}
h -t 0.1 -s 5 -d 18 -p cbr -e 210 -c 9 -i 6 -a 9 -x {5.0 29.0 -1 ------- null}
+ -t 0.1 -s 6 -d 19 -p cbr -e 210 -c 9 -i 7 -a 9 -x {6.0 29.0 0 ------- null}
- -t 0.1 -s 6 -d 19 -p cbr -e 210 -c 9 -i 7 -a 9 -x {6.0 29.0 0 ------- null}
h -t 0.1 -s 6 -d 19 -p cbr -e 210 -c 9 -i 7 -a 9 -x {6.0 29.0 -1 ------- null}
+ -t 0.1 -s 7 -d 20 -p cbr -e 210 -c 9 -i 8 -a 9 -x {7.0 29.0 0 ------- null}
- -t 0.1 -s 7 -d 20 -p cbr -e 210 -c 9 -i 8 -a 9 -x {7.0 29.0 0 ------- null}
h -t 0.1 -s 7 -d 20 -p cbr -e 210 -c 9 -i 8 -a 9 -x {7.0 29.0 -1 ------- null}
r -t 0.11168 -s 0 -d 13 -p cbr -e 210 -c 9 -i 0 -a 9 -x {0.0 30.0 0 ------- null}
+ -t 0.11168 -s 13 -d 21 -p cbr -e 210 -c 9 -i 0 -a 9 -x {0.0 30.0 0 ------- null}
- -t 0.11168 -s 13 -d 21 -p cbr -e 210 -c 9 -i 0 -a 9 -x {0.0 30.0 0 ------- null}
h -t 0.11168 -s 13 -d 21 -p cbr -e 210 -c 9 -i 0 -a 9 -x {0.0 30.0 -1 ------- null}
r -t 0.11168 -s 8 -d 28 -p cbr -e 210 -c 9 -i 1 -a 9 -x {8.0 30.0 0 ------- null}
+ -t 0.11168 -s 28 -d 21 -p cbr -e 210 -c 9 -i 1 -a 9 -x {8.0 30.0 0 ------- null}
- -t 0.11168 -s 28 -d 21 -p cbr -e 210 -c 9 -i 1 -a 9 -x {8.0 30.0 0 ------- null}
h -t 0.11168 -s 28 -d 21 -p cbr -e 210 -c 9 -i 1 -a 9 -x {8.0 30.0 -1 ------- null}
r -t 0.11168 -s 1 -d 14 -p cbr -e 210 -c 9 -i 2 -a 9 -x {1.0 30.0 0 ------- null}
+ -t 0.11168 -s 14 -d 21 -p cbr -e 210 -c 9 -i 2 -a 9 -x {1.0 30.0 0 ------- null}
- -t 0.11168 -s 14 -d 21 -p cbr -e 210 -c 9 -i 2 -a 9 -x {1.0 30.0 0 ------- null}
h -t 0.11168 -s 14 -d 21 -p cbr -e 210 -c 9 -i 2 -a 9 -x {1.0 30.0 -1 ------- null}
r -t 0.11168 -s 2 -d 15 -p cbr -e 210 -c 9 -i 3 -a 9 -x {2.0 31.0 0 ------- null}
+ -t 0.11168 -s 15 -d 16 -p cbr -e 210 -c 9 -i 3 -a 9 -x {2.0 31.0 0 ------- null}
- -t 0.11168 -s 15 -d 16 -p cbr -e 210 -c 9 -i 3 -a 9 -x {2.0 31.0 0 ------- null}
h -t 0.11168 -s 15 -d 16 -p cbr -e 210 -c 9 -i 3 -a 9 -x {2.0 31.0 -1 ------- null}
r -t 0.11168 -s 3 -d 16 -p cbr -e 210 -c 9 -i 4 -a 9 -x {3.0 31.0 0 ------- null}
+ -t 0.11168 -s 16 -d 22 -p cbr -e 210 -c 9 -i 4 -a 9 -x {3.0 31.0 0 ------- null}
- -t 0.11168 -s 16 -d 22 -p cbr -e 210 -c 9 -i 4 -a 9 -x {3.0 31.0 0 ------- null}
h -t 0.11168 -s 16 -d 22 -p cbr -e 210 -c 9 -i 4 -a 9 -x {3.0 31.0 -1 ------- null}
r -t 0.11168 -s 4 -d 17 -p cbr -e 210 -c 9 -i 5 -a 9 -x {4.0 31.0 0 ------- null}
+ -t 0.11168 -s 17 -d 26 -p cbr -e 210 -c 9 -i 5 -a 9 -x {4.0 31.0 0 ------- null}
- -t 0.11168 -s 17 -d 26 -p cbr -e 210 -c 9 -i 5 -a 9 -x {4.0 31.0 0 ------- null}
h -t 0.11168 -s 17 -d 26 -p cbr -e 210 -c 9 -i 5 -a 9 -x {4.0 31.0 -1 ------- null}
r -t 0.11168 -s 5 -d 18 -p cbr -e 210 -c 9 -i 6 -a 9 -x {5.0 29.0 0 ------- null}
+ -t 0.11168 -s 18 -d 23 -p cbr -e 210 -c 9 -i 6 -a 9 -x {5.0 29.0 0 ------- null}
- -t 0.11168 -s 18 -d 23 -p cbr -e 210 -c 9 -i 6 -a 9 -x {5.0 29.0 0 ------- null}
h -t 0.11168 -s 18 -d 23 -p cbr -e 210 -c 9 -i 6 -a 9 -x {5.0 29.0 -1 ------- null}
r -t 0.11168 -s 6 -d 19 -p cbr -e 210 -c 9 -i 7 -a 9 -x {6.0 29.0 0 ------- null}
+ -t 0.11168 -s 19 -d 23 -p cbr -e 210 -c 9 -i 7 -a 9 -x {6.0 29.0 0 ------- null}
- -t 0.11168 -s 19 -d 23 -p cbr -e 210 -c 9 -i 7 -a 9 -x {6.0 29.0 0 ------- null}
h -t 0.11168 -s 19 -d 23 -p cbr -e 210 -c 9 -i 7 -a 9 -x {6.0 29.0 -1 ------- null}
r -t 0.11168 -s 7 -d 20 -p cbr -e 210 -c 9 -i 8 -a 9 -x {7.0 29.0 0 ------- null}
+ -t 0.11168 -s 20 -d 24 -p cbr -e 210 -c 9 -i 8 -a 9 -x {7.0 29.0 0 ------- null}
- -t 0.11168 -s 20 -d 24 -p cbr -e 210 -c 9 -i 8 -a 9 -x {7.0 29.0 0 ------- null}
h -t 0.11168 -s 20 -d 24 -p cbr -e 210 -c 9 -i 8 -a 9 -x {7.0 29.0 -1 ------- null}
r -t 0.12336 -s 13 -d 21 -p cbr -e 210 -c 9 -i 0 -a 9 -x {0.0 30.0 0 ------- null}
+ -t 0.12336 -s 21 -d 27 -p cbr -e 210 -c 9 -i 0 -a 9 -x {0.0 30.0 0 ------- null}
- -t 0.12336 -s 21 -d 27 -p cbr -e 210 -c 9 -i 0 -a 9 -x {0.0 30.0 0 ------- null}
h -t 0.12336 -s 21 -d 27 -p cbr -e 210 -c 9 -i 0 -a 9 -x {0.0 30.0 -1 ------- null}
r -t 0.12336 -s 28 -d 21 -p cbr -e 210 -c 9 -i 1 -a 9 -x {8.0 30.0 0 ------- null}
+ -t 0.12336 -s 21 -d 27 -p cbr -e 210 -c 9 -i 1 -a 9 -x {8.0 30.0 0 ------- null}
r -t 0.12336 -s 14 -d 21 -p cbr -e 210 -c 9 -i 2 -a 9 -x {1.0 30.0 0 ------- null}
+ -t 0.12336 -s 21 -d 27 -p cbr -e 210 -c 9 -i 2 -a 9 -x {1.0 30.0 0 ------- null}
r -t 0.12336 -s 15 -d 16 -p cbr -e 210 -c 9 -i 3 -a 9 -x {2.0 31.0 0 ------- null}
+ -t 0.12336 -s 16 -d 22 -p cbr -e 210 -c 9 -i 3 -a 9 -x {2.0 31.0 0 ------- null}
- -t 0.12336 -s 16 -d 22 -p cbr -e 210 -c 9 -i 3 -a 9 -x {2.0 31.0 0 ------- null}
h -t 0.12336 -s 16 -d 22 -p cbr -e 210 -c 9 -i 3 -a 9 -x {2.0 31.0 -1 ------- null}
r -t 0.12336 -s 16 -d 22 -p cbr -e 210 -c 9 -i 4 -a 9 -x {3.0 31.0 0 ------- null}
+ -t 0.12336 -s 22 -d 26 -p cbr -e 210 -c 9 -i 4 -a 9 -x {3.0 31.0 0 ------- null}
- -t 0.12336 -s 22 -d 26 -p cbr -e 210 -c 9 -i 4 -a 9 -x {3.0 31.0 0 ------- null}
h -t 0.12336 -s 22 -d 26 -p cbr -e 210 -c 9 -i 4 -a 9 -x {3.0 31.0 -1 ------- null}
r -t 0.12336 -s 17 -d 26 -p cbr -e 210 -c 9 -i 5 -a 9 -x {4.0 31.0 0 ------- null}
+ -t 0.12336 -s 26 -d 25 -p cbr -e 210 -c 9 -i 5 -a 9 -x {4.0 31.0 0 ------- null}
- -t 0.12336 -s 26 -d 25 -p cbr -e 210 -c 9 -i 5 -a 9 -x {4.0 31.0 0 ------- null}
h -t 0.12336 -s 26 -d 25 -p cbr -e 210 -c 9 -i 5 -a 9 -x {4.0 31.0 -1 ------- null}
r -t 0.12336 -s 18 -d 23 -p cbr -e 210 -c 9 -i 6 -a 9 -x {5.0 29.0 0 ------- null}
+ -t 0.12336 -s 23 -d 27 -p cbr -e 210 -c 9 -i 6 -a 9 -x {5.0 29.0 0 ------- null}
- -t 0.12336 -s 23 -d 27 -p cbr -e 210 -c 9 -i 6 -a 9 -x {5.0 29.0 0 ------- null}
h -t 0.12336 -s 23 -d 27 -p cbr -e 210 -c 9 -i 6 -a 9 -x {5.0 29.0 -1 ------- null}
r -t 0.12336 -s 19 -d 23 -p cbr -e 210 -c 9 -i 7 -a 9 -x {6.0 29.0 0 ------- null}
+ -t 0.12336 -s 23 -d 27 -p cbr -e 210 -c 9 -i 7 -a 9 -x {6.0 29.0 0 ------- null}
r -t 0.12336 -s 20 -d 24 -p cbr -e 210 -c 9 -i 8 -a 9 -x {7.0 29.0 0 ------- null}
+ -t 0.12336 -s 24 -d 23 -p cbr -e 210 -c 9 -i 8 -a 9 -x {7.0 29.0 0 ------- null}
- -t 0.12336 -s 24 -d 23 -p cbr -e 210 -c 9 -i 8 -a 9 -x {7.0 29.0 0 ------- null}
h -t 0.12336 -s 24 -d 23 -p cbr -e 210 -c 9 -i 8 -a 9 -x {7.0 29.0 -1 ------- null}
- -t 0.12504 -s 21 -d 27 -p cbr -e 210 -c 9 -i 1 -a 9 -x {8.0 30.0 0 ------- null}
h -t 0.12504 -s 21 -d 27 -p cbr -e 210 -c 9 -i 1 -a 9 -x {8.0 30.0 -1 ------- null}
- -t 0.12504 -s 23 -d 27 -p cbr -e 210 -c 9 -i 7 -a 9 -x {6.0 29.0 0 ------- null}
h -t 0.12504 -s 23 -d 27 -p cbr -e 210 -c 9 -i 7 -a 9 -x {6.0 29.0 -1 ------- null}
- -t 0.12672 -s 21 -d 27 -p cbr -e 210 -c 9 -i 2 -a 9 -x {1.0 30.0 0 ------- null}
h -t 0.12672 -s 21 -d 27 -p cbr -e 210 -c 9 -i 2 -a 9 -x {1.0 30.0 -1 ------- null}
r -t 0.13504 -s 21 -d 27 -p cbr -e 210 -c 9 -i 0 -a 9 -x {0.0 30.0 0 ------- null}
+ -t 0.13504 -s 27 -d 30 -p cbr -e 210 -c 9 -i 0 -a 9 -x {0.0 30.0 0 ------- null}
- -t 0.13504 -s 27 -d 30 -p cbr -e 210 -c 9 -i 0 -a 9 -x {0.0 30.0 0 ------- null}
h -t 0.13504 -s 27 -d 30 -p cbr -e 210 -c 9 -i 0 -a 9 -x {0.0 30.0 -1 ------- null}
r -t 0.13504 -s 16 -d 22 -p cbr -e 210 -c 9 -i 3 -a 9 -x {2.0 31.0 0 ------- null}
+ -t 0.13504 -s 22 -d 26 -p cbr -e 210 -c 9 -i 3 -a 9 -x {2.0 31.0 0 ------- null}
- -t 0.13504 -s 22 -d 26 -p cbr -e 210 -c 9 -i 3 -a 9 -x {2.0 31.0 0 ------- null}
h -t 0.13504 -s 22 -d 26 -p cbr -e 210 -c 9 -i 3 -a 9 -x {2.0 31.0 -1 ------- null}
r -t 0.13504 -s 22 -d 26 -p cbr -e 210 -c 9 -i 4 -a 9 -x {3.0 31.0 0 ------- null}
+ -t 0.13504 -s 26 -d 25 -p cbr -e 210 -c 9 -i 4 -a 9 -x {3.0 31.0 0 ------- null}
- -t 0.13504 -s 26 -d 25 -p cbr -e 210 -c 9 -i 4 -a 9 -x {3.0 31.0 0 ------- null}
h -t 0.13504 -s 26 -d 25 -p cbr -e 210 -c 9 -i 4 -a 9 -x {3.0 31.0 -1 ------- null}
r -t 0.13504 -s 26 -d 25 -p cbr -e 210 -c 9 -i 5 -a 9 -x {4.0 31.0 0 ------- null}
+ -t 0.13504 -s 25 -d 27 -p cbr -e 210 -c 9 -i 5 -a 9 -x {4.0 31.0 0 ------- null}
- -t 0.13504 -s 25 -d 27 -p cbr -e 210 -c 9 -i 5 -a 9 -x {4.0 31.0 0 ------- null}
h -t 0.13504 -s 25 -d 27 -p cbr -e 210 -c 9 -i 5 -a 9 -x {4.0 31.0 -1 ------- null}
r -t 0.13504 -s 23 -d 27 -p cbr -e 210 -c 9 -i 6 -a 9 -x {5.0 29.0 0 ------- null}
+ -t 0.13504 -s 27 -d 25 -p cbr -e 210 -c 9 -i 6 -a 9 -x {5.0 29.0 0 ------- null}
- -t 0.13504 -s 27 -d 25 -p cbr -e 210 -c 9 -i 6 -a 9 -x {5.0 29.0 0 ------- null}
h -t 0.13504 -s 27 -d 25 -p cbr -e 210 -c 9 -i 6 -a 9 -x {5.0 29.0 -1 ------- null}
r -t 0.13504 -s 24 -d 23 -p cbr -e 210 -c 9 -i 8 -a 9 -x {7.0 29.0 0 ------- null}
+ -t 0.13504 -s 23 -d 27 -p cbr -e 210 -c 9 -i 8 -a 9 -x {7.0 29.0 0 ------- null}
- -t 0.13504 -s 23 -d 27 -p cbr -e 210 -c 9 -i 8 -a 9 -x {7.0 29.0 0 ------- null}
h -t 0.13504 -s 23 -d 27 -p cbr -e 210 -c 9 -i 8 -a 9 -x {7.0 29.0 -1 ------- null}
r -t 0.13672 -s 21 -d 27 -p cbr -e 210 -c 9 -i 1 -a 9 -x {8.0 30.0 0 ------- null}
+ -t 0.13672 -s 27 -d 30 -p cbr -e 210 -c 9 -i 1 -a 9 -x {8.0 30.0 0 ------- null}
r -t 0.13672 -s 23 -d 27 -p cbr -e 210 -c 9 -i 7 -a 9 -x {6.0 29.0 0 ------- null}
+ -t 0.13672 -s 27 -d 25 -p cbr -e 210 -c 9 -i 7 -a 9 -x {6.0 29.0 0 ------- null}
- -t 0.13672 -s 27 -d 30 -p cbr -e 210 -c 9 -i 1 -a 9 -x {8.0 30.0 0 ------- null}
h -t 0.13672 -s 27 -d 30 -p cbr -e 210 -c 9 -i 1 -a 9 -x {8.0 30.0 -1 ------- null}
- -t 0.13672 -s 27 -d 25 -p cbr -e 210 -c 9 -i 7 -a 9 -x {6.0 29.0 0 ------- null}
h -t 0.13672 -s 27 -d 25 -p cbr -e 210 -c 9 -i 7 -a 9 -x {6.0 29.0 -1 ------- null}
r -t 0.1384 -s 21 -d 27 -p cbr -e 210 -c 9 -i 2 -a 9 -x {1.0 30.0 0 ------- null}
+ -t 0.1384 -s 27 -d 30 -p cbr -e 210 -c 9 -i 2 -a 9 -x {1.0 30.0 0 ------- null}
- -t 0.1384 -s 27 -d 30 -p cbr -e 210 -c 9 -i 2 -a 9 -x {1.0 30.0 0 ------- null}
h -t 0.1384 -s 27 -d 30 -p cbr -e 210 -c 9 -i 2 -a 9 -x {1.0 30.0 -1 ------- null}
r -t 0.14672 -s 27 -d 30 -p cbr -e 210 -c 9 -i 0 -a 9 -x {0.0 30.0 0 ------- null}
r -t 0.14672 -s 22 -d 26 -p cbr -e 210 -c 9 -i 3 -a 9 -x {2.0 31.0 0 ------- null}
+ -t 0.14672 -s 26 -d 25 -p cbr -e 210 -c 9 -i 3 -a 9 -x {2.0 31.0 0 ------- null}
- -t 0.14672 -s 26 -d 25 -p cbr -e 210 -c 9 -i 3 -a 9 -x {2.0 31.0 0 ------- null}
h -t 0.14672 -s 26 -d 25 -p cbr -e 210 -c 9 -i 3 -a 9 -x {2.0 31.0 -1 ------- null}
r -t 0.14672 -s 26 -d 25 -p cbr -e 210 -c 9 -i 4 -a 9 -x {3.0 31.0 0 ------- null}
+ -t 0.14672 -s 25 -d 27 -p cbr -e 210 -c 9 -i 4 -a 9 -x {3.0 31.0 0 ------- null}
- -t 0.14672 -s 25 -d 27 -p cbr -e 210 -c 9 -i 4 -a 9 -x {3.0 31.0 0 ------- null}
h -t 0.14672 -s 25 -d 27 -p cbr -e 210 -c 9 -i 4 -a 9 -x {3.0 31.0 -1 ------- null}
r -t 0.14672 -s 25 -d 27 -p cbr -e 210 -c 9 -i 5 -a 9 -x {4.0 31.0 0 ------- null}
+ -t 0.14672 -s 27 -d 31 -p cbr -e 210 -c 9 -i 5 -a 9 -x {4.0 31.0 0 ------- null}
- -t 0.14672 -s 27 -d 31 -p cbr -e 210 -c 9 -i 5 -a 9 -x {4.0 31.0 0 ------- null}
h -t 0.14672 -s 27 -d 31 -p cbr -e 210 -c 9 -i 5 -a 9 -x {4.0 31.0 -1 ------- null}
r -t 0.14672 -s 27 -d 25 -p cbr -e 210 -c 9 -i 6 -a 9 -x {5.0 29.0 0 ------- null}
+ -t 0.14672 -s 25 -d 29 -p cbr -e 210 -c 9 -i 6 -a 9 -x {5.0 29.0 0 ------- null}
- -t 0.14672 -s 25 -d 29 -p cbr -e 210 -c 9 -i 6 -a 9 -x {5.0 29.0 0 ------- null}
h -t 0.14672 -s 25 -d 29 -p cbr -e 210 -c 9 -i 6 -a 9 -x {5.0 29.0 -1 ------- null}
r -t 0.14672 -s 23 -d 27 -p cbr -e 210 -c 9 -i 8 -a 9 -x {7.0 29.0 0 ------- null}
+ -t 0.14672 -s 27 -d 25 -p cbr -e 210 -c 9 -i 8 -a 9 -x {7.0 29.0 0 ------- null}
- -t 0.14672 -s 27 -d 25 -p cbr -e 210 -c 9 -i 8 -a 9 -x {7.0 29.0 0 ------- null}
h -t 0.14672 -s 27 -d 25 -p cbr -e 210 -c 9 -i 8 -a 9 -x {7.0 29.0 -1 ------- null}
r -t 0.1484 -s 27 -d 30 -p cbr -e 210 -c 9 -i 1 -a 9 -x {8.0 30.0 0 ------- null}
r -t 0.1484 -s 27 -d 25 -p cbr -e 210 -c 9 -i 7 -a 9 -x {6.0 29.0 0 ------- null}
+ -t 0.1484 -s 25 -d 29 -p cbr -e 210 -c 9 -i 7 -a 9 -x {6.0 29.0 0 ------- null}
- -t 0.1484 -s 25 -d 29 -p cbr -e 210 -c 9 -i 7 -a 9 -x {6.0 29.0 0 ------- null}
h -t 0.1484 -s 25 -d 29 -p cbr -e 210 -c 9 -i 7 -a 9 -x {6.0 29.0 -1 ------- null}
r -t 0.15008 -s 27 -d 30 -p cbr -e 210 -c 9 -i 2 -a 9 -x {1.0 30.0 0 ------- null}
r -t 0.1584 -s 26 -d 25 -p cbr -e 210 -c 9 -i 3 -a 9 -x {2.0 31.0 0 ------- null}
+ -t 0.1584 -s 25 -d 27 -p cbr -e 210 -c 9 -i 3 -a 9 -x {2.0 31.0 0 ------- null}
- -t 0.1584 -s 25 -d 27 -p cbr -e 210 -c 9 -i 3 -a 9 -x {2.0 31.0 0 ------- null}
h -t 0.1584 -s 25 -d 27 -p cbr -e 210 -c 9 -i 3 -a 9 -x {2.0 31.0 -1 ------- null}
r -t 0.1584 -s 25 -d 27 -p cbr -e 210 -c 9 -i 4 -a 9 -x {3.0 31.0 0 ------- null}
+ -t 0.1584 -s 27 -d 31 -p cbr -e 210 -c 9 -i 4 -a 9 -x {3.0 31.0 0 ------- null}
- -t 0.1584 -s 27 -d 31 -p cbr -e 210 -c 9 -i 4 -a 9 -x {3.0 31.0 0 ------- null}
h -t 0.1584 -s 27 -d 31 -p cbr -e 210 -c 9 -i 4 -a 9 -x {3.0 31.0 -1 ------- null}
r -t 0.1584 -s 27 -d 31 -p cbr -e 210 -c 9 -i 5 -a 9 -x {4.0 31.0 0 ------- null}
r -t 0.1584 -s 25 -d 29 -p cbr -e 210 -c 9 -i 6 -a 9 -x {5.0 29.0 0 ------- null}
r -t 0.1584 -s 27 -d 25 -p cbr -e 210 -c 9 -i 8 -a 9 -x {7.0 29.0 0 ------- null}
+ -t 0.1584 -s 25 -d 29 -p cbr -e 210 -c 9 -i 8 -a 9 -x {7.0 29.0 0 ------- null}
- -t 0.1584 -s 25 -d 29 -p cbr -e 210 -c 9 -i 8 -a 9 -x {7.0 29.0 0 ------- null}
h -t 0.1584 -s 25 -d 29 -p cbr -e 210 -c 9 -i 8 -a 9 -x {7.0 29.0 -1 ------- null}
r -t 0.16008 -s 25 -d 29 -p cbr -e 210 -c 9 -i 7 -a 9 -x {6.0 29.0 0 ------- null}
r -t 0.17008 -s 25 -d 27 -p cbr -e 210 -c 9 -i 3 -a 9 -x {2.0 31.0 0 ------- null}
+ -t 0.17008 -s 27 -d 31 -p cbr -e 210 -c 9 -i 3 -a 9 -x {2.0 31.0 0 ------- null}
- -t 0.17008 -s 27 -d 31 -p cbr -e 210 -c 9 -i 3 -a 9 -x {2.0 31.0 0 ------- null}
h -t 0.17008 -s 27 -d 31 -p cbr -e 210 -c 9 -i 3 -a 9 -x {2.0 31.0 -1 ------- null}
r -t 0.17008 -s 27 -d 31 -p cbr -e 210 -c 9 -i 4 -a 9 -x {3.0 31.0 0 ------- null}
r -t 0.17008 -s 25 -d 29 -p cbr -e 210 -c 9 -i 8 -a 9 -x {7.0 29.0 0 ------- null}
r -t 0.18176 -s 27 -d 31 -p cbr -e 210 -c 9 -i 3 -a 9 -x {2.0 31.0 0 ------- null}
+ -t 0.3240309 -s 10 -d 16 -p tcp -e 40 -c 1 -i 9 -a 1 -x {10.1 32.1 0 ------- null}
- -t 0.3240309 -s 10 -d 16 -p tcp -e 40 -c 1 -i 9 -a 1 -x {10.1 32.1 0 ------- null}
h -t 0.3240309 -s 10 -d 16 -p tcp -e 40 -c 1 -i 9 -a 1 -x {10.1 32.1 -1 ------- null}
m -t 0.32403090000000001 -s 10 -n _o772:0:0.32403090000000001 -c purple -h circle
r -t 0.3343509 -s 10 -d 16 -p tcp -e 40 -c 1 -i 9 -a 1 -x {10.1 32.1 0 ------- null}
+ -t 0.3343509 -s 16 -d 22 -p tcp -e 40 -c 1 -i 9 -a 1 -x {10.1 32.1 0 ------- null}
- -t 0.3343509 -s 16 -d 22 -p tcp -e 40 -c 1 -i 9 -a 1 -x {10.1 32.1 0 ------- null}
h -t 0.3343509 -s 16 -d 22 -p tcp -e 40 -c 1 -i 9 -a 1 -x {10.1 32.1 -1 ------- null}
r -t 0.3446709 -s 16 -d 22 -p tcp -e 40 -c 1 -i 9 -a 1 -x {10.1 32.1 0 ------- null}
+ -t 0.3446709 -s 22 -d 26 -p tcp -e 40 -c 1 -i 9 -a 1 -x {10.1 32.1 0 ------- null}
- -t 0.3446709 -s 22 -d 26 -p tcp -e 40 -c 1 -i 9 -a 1 -x {10.1 32.1 0 ------- null}
h -t 0.3446709 -s 22 -d 26 -p tcp -e 40 -c 1 -i 9 -a 1 -x {10.1 32.1 -1 ------- null}
r -t 0.3549909 -s 22 -d 26 -p tcp -e 40 -c 1 -i 9 -a 1 -x {10.1 32.1 0 ------- null}
+ -t 0.3549909 -s 26 -d 25 -p tcp -e 40 -c 1 -i 9 -a 1 -x {10.1 32.1 0 ------- null}
- -t 0.3549909 -s 26 -d 25 -p tcp -e 40 -c 1 -i 9 -a 1 -x {10.1 32.1 0 ------- null}
h -t 0.3549909 -s 26 -d 25 -p tcp -e 40 -c 1 -i 9 -a 1 -x {10.1 32.1 -1 ------- null}
r -t 0.3653109 -s 26 -d 25 -p tcp -e 40 -c 1 -i 9 -a 1 -x {10.1 32.1 0 ------- null}
+ -t 0.3653109 -s 25 -d 27 -p tcp -e 40 -c 1 -i 9 -a 1 -x {10.1 32.1 0 ------- null}
- -t 0.3653109 -s 25 -d 27 -p tcp -e 40 -c 1 -i 9 -a 1 -x {10.1 32.1 0 ------- null}
h -t 0.3653109 -s 25 -d 27 -p tcp -e 40 -c 1 -i 9 -a 1 -x {10.1 32.1 -1 ------- null}
r -t 0.3756309 -s 25 -d 27 -p tcp -e 40 -c 1 -i 9 -a 1 -x {10.1 32.1 0 ------- null}
+ -t 0.3756309 -s 27 -d 32 -p tcp -e 40 -c 1 -i 9 -a 1 -x {10.1 32.1 0 ------- null}
- -t 0.3756309 -s 27 -d 32 -p tcp -e 40 -c 1 -i 9 -a 1 -x {10.1 32.1 0 ------- null}
h -t 0.3756309 -s 27 -d 32 -p tcp -e 40 -c 1 -i 9 -a 1 -x {10.1 32.1 -1 ------- null}
r -t 0.3859509 -s 27 -d 32 -p tcp -e 40 -c 1 -i 9 -a 1 -x {10.1 32.1 0 ------- null}
+ -t 0.3859509 -s 32 -d 27 -p ack -e 40 -c 1 -i 10 -a 1 -x {32.1 10.1 0 ------- null}
- -t 0.3859509 -s 32 -d 27 -p ack -e 40 -c 1 -i 10 -a 1 -x {32.1 10.1 0 ------- null}
h -t 0.3859509 -s 32 -d 27 -p ack -e 40 -c 1 -i 10 -a 1 -x {32.1 10.1 -1 ------- null}
r -t 0.3962709 -s 32 -d 27 -p ack -e 40 -c 1 -i 10 -a 1 -x {32.1 10.1 0 ------- null}
+ -t 0.3962709 -s 27 -d 25 -p ack -e 40 -c 1 -i 10 -a 1 -x {32.1 10.1 0 ------- null}
- -t 0.3962709 -s 27 -d 25 -p ack -e 40 -c 1 -i 10 -a 1 -x {32.1 10.1 0 ------- null}
h -t 0.3962709 -s 27 -d 25 -p ack -e 40 -c 1 -i 10 -a 1 -x {32.1 10.1 -1 ------- null}
r -t 0.4065909 -s 27 -d 25 -p ack -e 40 -c 1 -i 10 -a 1 -x {32.1 10.1 0 ------- null}
+ -t 0.4065909 -s 25 -d 26 -p ack -e 40 -c 1 -i 10 -a 1 -x {32.1 10.1 0 ------- null}
- -t 0.4065909 -s 25 -d 26 -p ack -e 40 -c 1 -i 10 -a 1 -x {32.1 10.1 0 ------- null}
h -t 0.4065909 -s 25 -d 26 -p ack -e 40 -c 1 -i 10 -a 1 -x {32.1 10.1 -1 ------- null}
+ -t 0.4091587 -s 9 -d 13 -p tcp -e 40 -c 0 -i 11 -a 0 -x {9.1 32.0 0 ------- null}
- -t 0.4091587 -s 9 -d 13 -p tcp -e 40 -c 0 -i 11 -a 0 -x {9.1 32.0 0 ------- null}
h -t 0.4091587 -s 9 -d 13 -p tcp -e 40 -c 0 -i 11 -a 0 -x {9.1 32.0 -1 ------- null}
m -t 0.40915869999999999 -s 9 -n _o772:0:0.40915869999999999 -c purple -h circle
r -t 0.4169109 -s 25 -d 26 -p ack -e 40 -c 1 -i 10 -a 1 -x {32.1 10.1 0 ------- null}
+ -t 0.4169109 -s 26 -d 22 -p ack -e 40 -c 1 -i 10 -a 1 -x {32.1 10.1 0 ------- null}
- -t 0.4169109 -s 26 -d 22 -p ack -e 40 -c 1 -i 10 -a 1 -x {32.1 10.1 0 ------- null}
h -t 0.4169109 -s 26 -d 22 -p ack -e 40 -c 1 -i 10 -a 1 -x {32.1 10.1 -1 ------- null}
r -t 0.4194787 -s 9 -d 13 -p tcp -e 40 -c 0 -i 11 -a 0 -x {9.1 32.0 0 ------- null}
+ -t 0.4194787 -s 13 -d 21 -p tcp -e 40 -c 0 -i 11 -a 0 -x {9.1 32.0 0 ------- null}
- -t 0.4194787 -s 13 -d 21 -p tcp -e 40 -c 0 -i 11 -a 0 -x {9.1 32.0 0 ------- null}
h -t 0.4194787 -s 13 -d 21 -p tcp -e 40 -c 0 -i 11 -a 0 -x {9.1 32.0 -1 ------- null}
+ -t 0.4230907 -s 11 -d 17 -p tcp -e 40 -c 2 -i 12 -a 2 -x {11.1 32.2 0 ------- null}
- -t 0.4230907 -s 11 -d 17 -p tcp -e 40 -c 2 -i 12 -a 2 -x {11.1 32.2 0 ------- null}
h -t 0.4230907 -s 11 -d 17 -p tcp -e 40 -c 2 -i 12 -a 2 -x {11.1 32.2 -1 ------- null}
m -t 0.42309070000000004 -s 11 -n _o772:0:0.42309070000000004 -c purple -h circle
r -t 0.4272309 -s 26 -d 22 -p ack -e 40 -c 1 -i 10 -a 1 -x {32.1 10.1 0 ------- null}
+ -t 0.4272309 -s 22 -d 16 -p ack -e 40 -c 1 -i 10 -a 1 -x {32.1 10.1 0 ------- null}
- -t 0.4272309 -s 22 -d 16 -p ack -e 40 -c 1 -i 10 -a 1 -x {32.1 10.1 0 ------- null}
h -t 0.4272309 -s 22 -d 16 -p ack -e 40 -c 1 -i 10 -a 1 -x {32.1 10.1 -1 ------- null}
r -t 0.4297987 -s 13 -d 21 -p tcp -e 40 -c 0 -i 11 -a 0 -x {9.1 32.0 0 ------- null}
+ -t 0.4297987 -s 21 -d 27 -p tcp -e 40 -c 0 -i 11 -a 0 -x {9.1 32.0 0 ------- null}
- -t 0.4297987 -s 21 -d 27 -p tcp -e 40 -c 0 -i 11 -a 0 -x {9.1 32.0 0 ------- null}
h -t 0.4297987 -s 21 -d 27 -p tcp -e 40 -c 0 -i 11 -a 0 -x {9.1 32.0 -1 ------- null}
r -t 0.4334107 -s 11 -d 17 -p tcp -e 40 -c 2 -i 12 -a 2 -x {11.1 32.2 0 ------- null}
+ -t 0.4334107 -s 17 -d 26 -p tcp -e 40 -c 2 -i 12 -a 2 -x {11.1 32.2 0 ------- null}
- -t 0.4334107 -s 17 -d 26 -p tcp -e 40 -c 2 -i 12 -a 2 -x {11.1 32.2 0 ------- null}
h -t 0.4334107 -s 17 -d 26 -p tcp -e 40 -c 2 -i 12 -a 2 -x {11.1 32.2 -1 ------- null}
r -t 0.4375509 -s 22 -d 16 -p ack -e 40 -c 1 -i 10 -a 1 -x {32.1 10.1 0 ------- null}
+ -t 0.4375509 -s 16 -d 10 -p ack -e 40 -c 1 -i 10 -a 1 -x {32.1 10.1 0 ------- null}
- -t 0.4375509 -s 16 -d 10 -p ack -e 40 -c 1 -i 10 -a 1 -x {32.1 10.1 0 ------- null}
h -t 0.4375509 -s 16 -d 10 -p ack -e 40 -c 1 -i 10 -a 1 -x {32.1 10.1 -1 ------- null}
r -t 0.4401187 -s 21 -d 27 -p tcp -e 40 -c 0 -i 11 -a 0 -x {9.1 32.0 0 ------- null}
+ -t 0.4401187 -s 27 -d 32 -p tcp -e 40 -c 0 -i 11 -a 0 -x {9.1 32.0 0 ------- null}
- -t 0.4401187 -s 27 -d 32 -p tcp -e 40 -c 0 -i 11 -a 0 -x {9.1 32.0 0 ------- null}
h -t 0.4401187 -s 27 -d 32 -p tcp -e 40 -c 0 -i 11 -a 0 -x {9.1 32.0 -1 ------- null}
r -t 0.4437307 -s 17 -d 26 -p tcp -e 40 -c 2 -i 12 -a 2 -x {11.1 32.2 0 ------- null}
+ -t 0.4437307 -s 26 -d 25 -p tcp -e 40 -c 2 -i 12 -a 2 -x {11.1 32.2 0 ------- null}
- -t 0.4437307 -s 26 -d 25 -p tcp -e 40 -c 2 -i 12 -a 2 -x {11.1 32.2 0 ------- null}
h -t 0.4437307 -s 26 -d 25 -p tcp -e 40 -c 2 -i 12 -a 2 -x {11.1 32.2 -1 ------- null}
r -t 0.4478709 -s 16 -d 10 -p ack -e 40 -c 1 -i 10 -a 1 -x {32.1 10.1 0 ------- null}
+ -t 0.4478709 -s 10 -d 16 -p tcp -e 40 -c 1 -i 13 -a 1 -x {10.1 32.1 1 ------- null}
- -t 0.4478709 -s 10 -d 16 -p tcp -e 40 -c 1 -i 13 -a 1 -x {10.1 32.1 1 ------- null}
h -t 0.4478709 -s 10 -d 16 -p tcp -e 40 -c 1 -i 13 -a 1 -x {10.1 32.1 -1 ------- null}
+ -t 0.4478709 -s 10 -d 16 -p tcp -e 83 -c 1 -i 14 -a 1 -x {10.1 32.1 1 ------- null}
- -t 0.4481909 -s 10 -d 16 -p tcp -e 83 -c 1 -i 14 -a 1 -x {10.1 32.1 1 ------- null}
h -t 0.4481909 -s 10 -d 16 -p tcp -e 83 -c 1 -i 14 -a 1 -x {10.1 32.1 -1 ------- null}
r -t 0.4504387 -s 27 -d 32 -p tcp -e 40 -c 0 -i 11 -a 0 -x {9.1 32.0 0 ------- null}
+ -t 0.4504387 -s 32 -d 27 -p ack -e 40 -c 0 -i 15 -a 0 -x {32.0 9.1 0 ------- null}
- -t 0.4504387 -s 32 -d 27 -p ack -e 40 -c 0 -i 15 -a 0 -x {32.0 9.1 0 ------- null}
h -t 0.4504387 -s 32 -d 27 -p ack -e 40 -c 0 -i 15 -a 0 -x {32.0 9.1 -1 ------- null}
r -t 0.4540507 -s 26 -d 25 -p tcp -e 40 -c 2 -i 12 -a 2 -x {11.1 32.2 0 ------- null}
+ -t 0.4540507 -s 25 -d 27 -p tcp -e 40 -c 2 -i 12 -a 2 -x {11.1 32.2 0 ------- null}
- -t 0.4540507 -s 25 -d 27 -p tcp -e 40 -c 2 -i 12 -a 2 -x {11.1 32.2 0 ------- null}
h -t 0.4540507 -s 25 -d 27 -p tcp -e 40 -c 2 -i 12 -a 2 -x {11.1 32.2 -1 ------- null}
r -t 0.4581909 -s 10 -d 16 -p tcp -e 40 -c 1 -i 13 -a 1 -x {10.1 32.1 1 ------- null}
+ -t 0.4581909 -s 16 -d 22 -p tcp -e 40 -c 1 -i 13 -a 1 -x {10.1 32.1 1 ------- null}
- -t 0.4581909 -s 16 -d 22 -p tcp -e 40 -c 1 -i 13 -a 1 -x {10.1 32.1 1 ------- null}
h -t 0.4581909 -s 16 -d 22 -p tcp -e 40 -c 1 -i 13 -a 1 -x {10.1 32.1 -1 ------- null}
r -t 0.4588549 -s 10 -d 16 -p tcp -e 83 -c 1 -i 14 -a 1 -x {10.1 32.1 1 ------- null}
+ -t 0.4588549 -s 16 -d 22 -p tcp -e 83 -c 1 -i 14 -a 1 -x {10.1 32.1 1 ------- null}
- -t 0.4588549 -s 16 -d 22 -p tcp -e 83 -c 1 -i 14 -a 1 -x {10.1 32.1 1 ------- null}
h -t 0.4588549 -s 16 -d 22 -p tcp -e 83 -c 1 -i 14 -a 1 -x {10.1 32.1 -1 ------- null}
r -t 0.4607587 -s 32 -d 27 -p ack -e 40 -c 0 -i 15 -a 0 -x {32.0 9.1 0 ------- null}
+ -t 0.4607587 -s 27 -d 21 -p ack -e 40 -c 0 -i 15 -a 0 -x {32.0 9.1 0 ------- null}
- -t 0.4607587 -s 27 -d 21 -p ack -e 40 -c 0 -i 15 -a 0 -x {32.0 9.1 0 ------- null}
h -t 0.4607587 -s 27 -d 21 -p ack -e 40 -c 0 -i 15 -a 0 -x {32.0 9.1 -1 ------- null}
r -t 0.4643707 -s 25 -d 27 -p tcp -e 40 -c 2 -i 12 -a 2 -x {11.1 32.2 0 ------- null}
+ -t 0.4643707 -s 27 -d 32 -p tcp -e 40 -c 2 -i 12 -a 2 -x {11.1 32.2 0 ------- null}
- -t 0.4643707 -s 27 -d 32 -p tcp -e 40 -c 2 -i 12 -a 2 -x {11.1 32.2 0 ------- null}
h -t 0.4643707 -s 27 -d 32 -p tcp -e 40 -c 2 -i 12 -a 2 -x {11.1 32.2 -1 ------- null}
r -t 0.4685109 -s 16 -d 22 -p tcp -e 40 -c 1 -i 13 -a 1 -x {10.1 32.1 1 ------- null}
+ -t 0.4685109 -s 22 -d 26 -p tcp -e 40 -c 1 -i 13 -a 1 -x {10.1 32.1 1 ------- null}
- -t 0.4685109 -s 22 -d 26 -p tcp -e 40 -c 1 -i 13 -a 1 -x {10.1 32.1 1 ------- null}
h -t 0.4685109 -s 22 -d 26 -p tcp -e 40 -c 1 -i 13 -a 1 -x {10.1 32.1 -1 ------- null}
r -t 0.4695189 -s 16 -d 22 -p tcp -e 83 -c 1 -i 14 -a 1 -x {10.1 32.1 1 ------- null}
+ -t 0.4695189 -s 22 -d 26 -p tcp -e 83 -c 1 -i 14 -a 1 -x {10.1 32.1 1 ------- null}
- -t 0.4695189 -s 22 -d 26 -p tcp -e 83 -c 1 -i 14 -a 1 -x {10.1 32.1 1 ------- null}
h -t 0.4695189 -s 22 -d 26 -p tcp -e 83 -c 1 -i 14 -a 1 -x {10.1 32.1 -1 ------- null}